<?xml version="1.0"?>
<VTKFile type="PolyData" version="0.1" byte_order="LittleEndian" compressor="vtkZLibDataCompressor">
	<PolyData>
		<Piece NumberOfPoints="1434" NumberOfVerts="0" NumberOfLines="0" NumberOfStrips="0" NumberOfPolys="2864">
		<PointData Normals="Normals">
		<DataArray type="Float32" Name="Normals" NumberOfComponents="3" format="ascii">
			-0.142336 -0.180274  0.973263
			-0.361769  0.029472  0.931802
			-0.249912 -0.158920  0.955138
			-0.035536 -0.288490  0.956823
			-0.221685 -0.054630  0.973587
			 0.055535 -0.220998  0.973692
			-0.018557 -0.316720  0.948338
			 0.189808 -0.351299  0.916822
			-0.416482  0.003943  0.909135
			-0.375872  0.105136  0.920688
			-0.536756  0.165065  0.827434
			-0.070796 -0.322473  0.943928
			-0.396149 -0.236705  0.887151
			-0.244684 -0.415723  0.875959
			 0.145947 -0.453470  0.879241
			 0.107296 -0.453468  0.884791
			 0.125225 -0.486161  0.864850
			-0.152660 -0.036161  0.987617
			 0.206253 -0.221447  0.953111
			-0.000314 -0.078952  0.996878
			 0.260177 -0.429471  0.864791
			 0.271887 -0.420333  0.865678
			 0.332927 -0.565190  0.754798
			-0.506482 -0.049187  0.860847
			-0.510761  0.209033  0.833923
			-0.383670  0.168155  0.908031
			-0.215328  0.102313  0.971167
			-0.617006  0.101589  0.780374
			-0.661848  0.265738  0.700957
			-0.667150  0.236070  0.706528
			-0.009389 -0.597555  0.801773
			-0.450462 -0.303924  0.839473
			-0.307933 -0.502825  0.807678
			-0.096806 -0.705385  0.702183
			 0.140621 -0.681314  0.718357
			 0.249086 -0.621067  0.743123
			 0.413693 -0.590921  0.692583
			-0.018621  0.051943  0.998476
			 0.243980 -0.494362  0.834314
			 0.206007 -0.069564  0.976075
			 0.251674 -0.227892  0.940599
			 0.338438 -0.668834  0.661907
			 0.323765 -0.688715  0.648728
			-0.519135 -0.112951  0.847196
			-0.432927  0.259171  0.863368
			-0.548788  0.347749  0.760199
			-0.260487  0.172036  0.950027
			-0.695026 -0.021233  0.718670
			-0.688771  0.172672  0.704116
			-0.608537 -0.100270  0.787165
			-0.528335 -0.166067  0.832637
			-0.717416  0.390523  0.576893
			-0.663541  0.446360  0.600396
			-0.745131  0.194391  0.637959
			-0.664924  0.223758  0.712607
			 0.087577 -0.801067  0.592133
			-0.382467 -0.318980  0.867162
			-0.335184 -0.570670  0.749658
			-0.125207 -0.784952  0.606774
			 0.087582 -0.901431  0.423971
			 0.307255 -0.790982  0.529096
			 0.372989 -0.679999  0.631253
			-0.126941  0.144867  0.981275
			-0.005552  0.014403  0.999881
			 0.301419 -0.630811  0.714999
			 0.270421 -0.394232  0.878324
			 0.070628  0.051999  0.996147
			 0.271940 -0.014261  0.962209
			 0.352966 -0.140265  0.925063
			 0.432093 -0.069724  0.899130
			 0.318907 -0.735611  0.597641
			 0.301488 -0.745935  0.593873
			 0.393197 -0.787043  0.475351
			 0.350557 -0.733768  0.581975
			-0.297872  0.247515  0.921959
			-0.510909  0.314140  0.800180
			-0.439338  0.302348  0.845912
			-0.552252  0.346580  0.758222
			-0.589449  0.481322  0.648752
			-0.715644  0.142360  0.683804
			-0.659496 -0.256479  0.706600
			-0.679972 -0.347625  0.645597
			-0.739691 -0.179538  0.648555
			-0.804595 -0.042946  0.592268
			-0.601505 -0.380613  0.702372
			-0.361858 -0.434660  0.824700
			-0.461445 -0.537281  0.705973
			-0.864821  0.154517  0.477713
			-0.817498  0.334803  0.468619
			-0.702513  0.505355  0.501091
			-0.657691  0.556703  0.507469
			-0.659508  0.535067  0.527970
			-0.855582  0.046034  0.515617
			-0.840189  0.089366  0.534879
			-0.331650 -0.492190  0.804834
			-0.394352 -0.607451  0.689557
			-0.309970 -0.748991  0.585603
			-0.149400 -0.858579  0.490430
			 0.045534 -0.925224  0.376678
			 0.074653 -0.980830  0.180000
			 0.061921 -0.929298  0.364104
			 0.237887 -0.802850  0.546665
			 0.190001 -0.789044  0.584217
			-0.302970  0.266923  0.914856
			-0.042588  0.185248  0.981769
			 0.349237 -0.581183  0.735024
			 0.279308 -0.723759  0.630999
			 0.327538 -0.711567  0.621604
			 0.410325 -0.381741  0.828195
			 0.399728 -0.189265  0.896881
			 0.222369  0.073975  0.972152
			 0.425973 -0.010784  0.904671
			 0.415046 -0.076600  0.906570
			 0.493953 -0.025830  0.869105
			 0.244209 -0.859796  0.448457
			 0.385096 -0.856368  0.343998
			 0.352429 -0.805745  0.475992
			 0.242580 -0.775251  0.583217
			 0.254623 -0.792108  0.554736
			-0.444531  0.294236  0.846060
			-0.558868  0.372680  0.740795
			-0.618265  0.552128  0.559377
			-0.597678  0.608263  0.522299
			-0.652172  0.544292  0.527654
			-0.582470 -0.578219  0.571307
			-0.718542 -0.461396  0.520395
			-0.571065 -0.639451  0.514769
			-0.804910 -0.310360  0.505763
			-0.899773 -0.095041  0.425883
			-0.894500 -0.187815  0.405704
			-0.850382 -0.263639  0.455352
			-0.496321 -0.659372  0.564707
			-0.372832 -0.793782  0.480527
			-0.918094  0.008324  0.396275
			-0.921393  0.162370  0.353088
			-0.838060  0.354139  0.415019
			-0.669048  0.510186  0.540448
			-0.747834  0.467645  0.471225
			-0.676967  0.585837  0.445546
			-0.636209  0.543259  0.547820
			-0.200272 -0.911735  0.358652
			-0.015771 -0.980053  0.198108
			-0.013797 -0.989316  0.145136
			 0.000412 -0.987964  0.154685
			-0.108265 -0.948573  0.297471
			 0.056124 -0.895338  0.441837
			-0.396402  0.331500  0.856139
			-0.221275  0.307268  0.925540
			 0.157372  0.160608  0.974392
			 0.510186 -0.345200  0.787748
			 0.468274 -0.543697  0.696500
			 0.542653 -0.459042  0.703426
			 0.367551 -0.666380  0.648725
			 0.511761 -0.116518  0.851190
			 0.390816  0.042595  0.919483
			 0.425451 -0.055026  0.903307
			 0.034337 -0.969060  0.244424
			 0.294984 -0.916875  0.268934
			 0.269663 -0.935712  0.227433
			 0.393219 -0.908837  0.139263
			 0.137080 -0.832923  0.536142
			 0.383339 -0.666205  0.639705
			 0.216171 -0.739333  0.637697
			-0.510390  0.428063  0.745831
			-0.636906  0.527813  0.561929
			-0.638513  0.492688  0.591235
			-0.623324  0.654551  0.427820
			-0.433087 -0.798033  0.419022
			-0.454671 -0.762925  0.459587
			-0.741824 -0.605164  0.288918
			-0.561977 -0.752252  0.343947
			-0.828224 -0.476819  0.294430
			-0.860378 -0.245224  0.446783
			-0.894508 -0.314210  0.318005
			-0.897835 -0.340871  0.278747
			-0.154208 -0.973464  0.169079
			-0.877085 -0.118162  0.465575
			-0.956395 -0.025741  0.290940
			-0.896805  0.009203  0.442331
			-0.951342  0.058427  0.302548
			-0.925041  0.197228  0.324653
			-0.842626  0.368084  0.393059
			-0.719816  0.496561  0.485069
			 0.962124  0.194810  0.190701
			-0.090738  0.702098  0.706275
			-0.779508  0.517594  0.352793
			-0.570263  0.726074  0.384209
			-0.724627  0.628960  0.281647
			-0.618240  0.727797  0.296800
			-0.630832  0.417402  0.654084
			-0.587686  0.629864  0.507835
			 0.001689 -0.974228  0.225561
			-0.147256 -0.945885  0.289168
			-0.019042 -0.982549  0.185024
			-0.085248 -0.933198  0.349104
			-0.051538 -0.856881  0.512932
			 0.210800 -0.971965  0.104149
			-0.154098 -0.926968  0.342029
			-0.415712  0.434214  0.799151
			 0.080115  0.305280  0.948886
			-0.108617  0.419373  0.901293
			-0.294918  0.485081  0.823237
			 0.316218  0.144310  0.937646
			 0.624200 -0.091650  0.775870
			 0.589047 -0.283159  0.756865
			 0.659422 -0.269993  0.701617
			 0.639551 -0.266262  0.721165
			 0.693710 -0.098355  0.713507
			 0.626830 -0.365182  0.688278
			 0.498392  0.017165  0.866782
			 0.625679 -0.012259  0.779984
			-0.087217 -0.926520  0.365996
			 0.098389 -0.965704  0.240283
			 0.265754 -0.961699 -0.067154
			 0.284152 -0.957192  0.055137
			 0.183887 -0.917118  0.353665
			 0.083960 -0.989840  0.114752
			 0.096615 -0.993093  0.066573
			 0.247123 -0.964329 -0.094873
			 0.104423 -0.795718  0.596597
			 0.156145 -0.869910  0.467842
			 0.439076 -0.551147  0.709541
			 0.558646 -0.424557  0.712507
			 0.238390 -0.854190  0.462092
			 0.284546 -0.755384  0.590278
			-0.532628  0.496689  0.685279
			-0.609884  0.641962  0.464680
			-0.563235  0.571607  0.596684
			-0.588821  0.575003  0.568033
			-0.505327  0.771545  0.386476
			-0.459956  0.853975  0.243243
			-0.431608  0.873651  0.224606
			-0.632511  0.688663  0.354503
			-0.530524  0.825688  0.191789
			-0.330835 -0.889027  0.316510
			-0.646746 -0.761148  0.048723
			-0.569431 -0.812276  0.126315
			-0.428511 -0.889135  0.160678
			-0.780820 -0.541325  0.311910
			-0.762174 -0.432050  0.482103
			-0.737448 -0.528732  0.420254
			-0.828994 -0.319447  0.459046
			-0.795637 -0.389611  0.463859
			 0.080530 -0.986950  0.139445
			-0.012294 -0.997703  0.066611
			-0.782235 -0.394240  0.482373
			-0.857288 -0.146243  0.493629
			-0.905948 -0.122945  0.405146
			-0.978147 -0.175624  0.111289
			-0.939518 -0.338251  0.053784
			-0.929107 -0.249904  0.272594
			-0.899147 -0.050061  0.434775
			-0.877116 -0.180161  0.445208
			-0.960511  0.118759  0.251626
			-0.983794  0.021216  0.178040
			-0.984508 -0.083898  0.153964
			-0.875006  0.338381  0.346213
			-0.940148  0.196077  0.278705
			-0.948969  0.165486  0.268463
			-0.924501  0.255606  0.282777
			 0.761995  0.501326  0.409923
			-0.845789  0.411379  0.339717
			-0.850347  0.438687  0.290627
			-0.745395  0.530261  0.403992
			-0.830763  0.523597  0.188887
			-0.486801  0.853307  0.186792
			-0.545878  0.816439  0.188266
			-0.703220  0.690156  0.170782
			-0.145130 -0.815788  0.559845
			-0.015648 -0.805472  0.592427
			-0.164515 -0.976638  0.138248
			 0.537228 -0.837041  0.103674
			-0.301588 -0.883248  0.359050
			-0.168503 -0.763446  0.623503
			-0.060462 -0.716176  0.695296
			 0.832557 -0.551861  0.047937
			-0.424073  0.557595  0.713618
			 0.389194  0.260569  0.883534
			 0.122789  0.349649  0.928800
			-0.000599  0.443024  0.896509
			-0.371298  0.579557  0.725432
			 0.052578  0.556885  0.828924
			-0.245391  0.610415  0.753111
			 0.509930  0.097644  0.854656
			 0.422644  0.049549  0.904941
			 0.759408  0.012738  0.650490
			 0.711934 -0.072124  0.698533
			 0.740244 -0.011718  0.672236
			 0.692661 -0.099809  0.714325
			 0.719296  0.074169  0.690733
			 0.776338 -0.041542  0.628947
			 0.665235 -0.009086  0.746579
			 0.582677  0.089164  0.807797
			 0.566766  0.061222  0.821601
			 0.557955  0.059133  0.827762
			 0.193400 -0.894015  0.404146
			 0.341126 -0.911375  0.230279
			 0.297970 -0.948870 -0.104206
			 0.229193 -0.886995 -0.400887
			 0.216301 -0.889925 -0.401556
			 0.167550 -0.922107  0.348776
			 0.068464 -0.996955 -0.037330
			 0.017040 -0.990934 -0.133264
			-0.069816 -0.996071 -0.054481
			 0.030434 -0.972889  0.229262
			 0.115453 -0.924853  0.362377
			 0.048678 -0.964090 -0.261077
			 0.563065 -0.299332  0.770298
			 0.502009 -0.277655  0.819082
			 0.406180 -0.503647  0.762468
			 0.183302 -0.885729  0.426479
			 0.347072 -0.733822  0.583992
			 0.449869 -0.519067  0.726765
			-0.504111  0.641259  0.578497
			-0.388047  0.917042  0.091945
			-0.451854  0.885319  0.109720
			-0.512210  0.699242  0.498700
			-0.555090  0.805002  0.209399
			-0.224676 -0.972547  0.060610
			-0.409520 -0.908325 -0.085081
			-0.686863 -0.677526  0.263019
			-0.494068 -0.854212  0.161922
			-0.311240 -0.949534 -0.038909
			-0.637188 -0.691663  0.339992
			-0.713628 -0.646782  0.269088
			-0.508635 -0.859406  0.052077
			-0.759289 -0.545825  0.354339
			-0.694585 -0.603479  0.391618
			 0.814356 -0.580355  0.003402
			-0.755211 -0.447358  0.479090
			-0.571652 -0.750421  0.331786
			-0.922404 -0.163215  0.350046
			-0.854664 -0.442470  0.271607
			-0.890946 -0.355334  0.282758
			-0.885477 -0.449855 -0.116452
			-0.933897 -0.343184 -0.100305
			-0.745208 -0.636157 -0.199922
			-0.849699 -0.521717  0.076313
			-0.917632 -0.241122  0.315930
			-0.754211 -0.571580  0.323206
			-0.992351 -0.031030  0.119481
			-0.987296 -0.156606 -0.026869
			-0.899000  0.374835  0.226487
			-0.973516  0.169523  0.153389
			-0.939475  0.275104  0.204218
			-0.989192  0.024324  0.144597
			-0.906764  0.412501  0.087298
			-0.843479  0.536972  0.014323
			-0.662597  0.746760  0.057575
			-0.663549  0.723285  0.191212
			-0.444967  0.891948  0.080211
			-0.771162  0.626257  0.114509
			 0.142069 -0.783970  0.604324
			 0.244693 -0.818600  0.519634
			-0.319346 -0.947574 -0.011026
			-0.460442 -0.867611  0.187732
			-0.138128 -0.985597 -0.097569
			-0.396952 -0.810022  0.431618
			-0.288202 -0.802547  0.522359
			-0.100573 -0.810167  0.577507
			 0.088905 -0.896833  0.433343
			-0.390650  0.709328  0.586726
			-0.389216  0.684002  0.616970
			 0.421172  0.372801  0.826821
			 0.811139  0.159745  0.562614
			-0.104500  0.734656  0.670343
			 0.328615  0.513415  0.792728
			 0.229449  0.670921  0.705137
			 0.763917 -0.066404  0.641889
			 0.773858  0.072126  0.629239
			 0.786302  0.077303  0.612988
			 0.720457  0.109028  0.684875
			 0.695558  0.124018  0.707686
			 0.660103 -0.086156  0.746217
			 0.749179  0.103995  0.654153
			 0.772192 -0.011913  0.635278
			 0.757968 -0.092312  0.645727
			 0.765059 -0.138002  0.629000
			 0.662579  0.083772  0.744293
			 0.707208  0.004017  0.706994
			 0.630092  0.038967  0.775542
			 0.557725  0.145271  0.817214
			 0.277301 -0.921986  0.270270
			 0.197142 -0.979827  0.032776
			 0.230405 -0.931445 -0.281645
			 0.118695 -0.882606 -0.454882
			 0.162618 -0.843928 -0.511216
			 0.033503 -0.911921 -0.408995
			 0.079809 -0.862284 -0.500097
			-0.027698 -0.978921 -0.202352
			-0.059357 -0.984462 -0.165260
			-0.136514 -0.986571 -0.089677
			-0.072101 -0.996568  0.040674
			 0.303720 -0.876676  0.373087
			 0.309612 -0.890043  0.334610
			 0.137334 -0.962143  0.235417
			-0.095581 -0.888851 -0.448117
			-0.132896 -0.896388 -0.422880
			-0.096552 -0.952175 -0.289898
			 0.586983 -0.091925  0.804364
			 0.534413 -0.265691  0.802378
			 0.574987 -0.005610  0.818144
			 0.364843 -0.826168  0.429345
			 0.611906 -0.486117  0.623908
			 0.544804 -0.675071  0.497461
			 0.632105 -0.280345  0.722392
			-0.576793  0.807103  0.126071
			-0.482692  0.841596  0.242331
			-0.631612  0.766989  0.113114
			-0.528660  0.804169  0.271716
			-0.448681  0.792829  0.412440
			-0.289275 -0.946281 -0.144473
			-0.360261 -0.930393  0.067687
			-0.208038 -0.974169 -0.087840
			-0.522836 -0.835545  0.168842
			-0.288009 -0.955893  0.057620
			-0.567071 -0.777170  0.272832
			-0.338807 -0.934854  0.106107
			-0.424213 -0.898489  0.112960
			-0.711000 -0.663418  0.233144
			-0.660555 -0.750504 -0.020279
			-0.769905 -0.564662 -0.297327
			-0.968993 -0.231171 -0.087251
			-0.889755 -0.407511 -0.205599
			-0.778594 -0.552053 -0.298377
			-0.575479 -0.739666 -0.348881
			-0.478828 -0.836501 -0.266440
			-0.987230 -0.147509 -0.060147
			-0.970544 -0.235135 -0.052503
			-0.940543  0.338838 -0.023820
			-0.965811  0.259247 -0.000442
			-0.982858  0.101145 -0.154145
			-0.993870 -0.078222 -0.078126
			-0.883426  0.414166 -0.219145
			-0.811982  0.507726 -0.287923
			-0.736101  0.622974 -0.264685
			-0.604824  0.761621 -0.232640
			-0.454507  0.886948  0.082141
			-0.531116  0.837168 -0.130637
			-0.462209 -0.885140 -0.053763
			-0.564243 -0.804427  0.185813
			-0.481861 -0.861564  0.159743
			-0.459859 -0.875612  0.147763
			-0.401299 -0.836597  0.372913
			-0.163046 -0.902333  0.399012
			-0.322794 -0.908192  0.266444
			 0.011859 -0.959191  0.282511
			 0.146175 -0.988088 -0.048111
			-0.216678  0.826439  0.519663
			-0.309933  0.847807  0.430308
			 0.387891  0.367544  0.845253
			 0.907512  0.136656  0.397174
			 0.555951  0.212918  0.803483
			 0.926982  0.118882  0.355770
			 0.694833  0.194944  0.692246
			 0.071858  0.819632  0.568365
			 0.578751  0.345675  0.738618
			 0.348831  0.617882  0.704655
			 0.321371  0.755985  0.570269
			 0.763698 -0.080813  0.640495
			 0.731232  0.181575  0.657518
			 0.642975  0.108699  0.758135
			 0.715473  0.164341  0.679036
			 0.816843  0.044587  0.575134
			 0.806119  0.116230  0.580227
			 0.822973 -0.023751  0.567584
			 0.718194 -0.019893  0.695559
			 0.864190 -0.022745  0.502651
			 0.767611 -0.079206  0.636003
			 0.729477  0.002966  0.683999
			 0.568400  0.134755  0.811642
			 0.511227  0.222186  0.830229
			-0.022577 -0.954318 -0.297939
			-0.083356 -0.913049 -0.399240
			-0.000139 -0.839263 -0.543726
			-0.050587 -0.856933 -0.512939
			-0.010915 -0.850791 -0.525392
			-0.129147 -0.977776 -0.165153
			 0.071407 -0.997447 -0.000211
			 0.836944 -0.546764  0.023974
			 0.337633 -0.932578  0.127681
			 0.612169 -0.706086  0.355938
			 0.601819 -0.739447  0.301715
			 0.511029 -0.797170  0.321510
			 0.663205 -0.650485  0.370172
			 0.395336 -0.815160  0.423348
			 0.380887 -0.889719  0.251646
			-0.127952 -0.847865 -0.514541
			-0.025711 -0.847587 -0.530033
			-0.224341 -0.876199 -0.426552
			-0.191118 -0.845787 -0.498115
			-0.276063 -0.894810 -0.350861
			 0.659583 -0.027665  0.751122
			 0.764354 -0.455264  0.456616
			 0.747798 -0.185376  0.637522
			-0.393604  0.867506  0.304151
			-0.572167  0.810161  0.127533
			-0.696148  0.717888  0.003916
			-0.438427  0.878244  0.190971
			-0.593668  0.756998  0.272971
			-0.547891  0.822526  0.152531
			-0.517637  0.755810  0.401002
			-0.650252  0.750981  0.114896
			-0.626284  0.756439  0.188594
			-0.587411  0.781366  0.210749
			-0.534591  0.789143  0.302434
			-0.306663 -0.951467 -0.025859
			-0.213353 -0.976176  0.039508
			-0.408939 -0.912555 -0.003430
			-0.254159 -0.967055  0.014435
			-0.321755 -0.941282 -0.102278
			-0.248423 -0.956894 -0.150462
			-0.401108 -0.904822 -0.142862
			-0.597913 -0.709763 -0.372474
			-0.762702 -0.532662 -0.366819
			-0.885097 -0.383351 -0.263904
			-0.635513 -0.678307 -0.368814
			-0.315997 -0.907130 -0.277960
			-0.494211 -0.762106 -0.418271
			-0.313387 -0.855426 -0.412353
			-0.902601 -0.281193 -0.325949
			-0.923749  0.217809 -0.315036
			-0.849410  0.301702 -0.432988
			-0.972050  0.005865 -0.234701
			-0.905755  0.136721 -0.401143
			-0.938877 -0.194557 -0.284002
			-0.710766  0.472868 -0.520776
			-0.608833  0.508819 -0.608626
			-0.594958  0.667613 -0.447570
			-0.514238  0.849898 -0.115032
			-0.540272  0.729658 -0.419172
			-0.515929 -0.856579  0.009497
			-0.506590 -0.861497 -0.034485
			-0.394588 -0.915374  0.079943
			-0.371279 -0.905248 -0.206588
			-0.102279 -0.971998  0.211563
			-0.174252 -0.984361 -0.025893
			-0.270406 -0.952156 -0.142404
			-0.023635 -0.999398 -0.025377
			-0.087336  0.879064  0.468635
			 0.501705  0.330340  0.799479
			 0.240666  0.838184  0.489416
			 0.393798  0.463355  0.793868
			 0.173118  0.736738  0.653642
			 0.255743  0.796155  0.548391
			 0.422747  0.523282  0.739906
			 0.551949  0.420376  0.720164
			 0.223329  0.561993  0.796422
			 0.776781  0.173596  0.605372
			 0.732733  0.236465  0.638112
			 0.730458  0.267303  0.628474
			 0.725854  0.045484  0.686343
			 0.766284  0.009574  0.642431
			 0.892934  0.003083  0.450178
			 0.850370  0.150371  0.504242
			 0.675665  0.104956  0.729699
			 0.722070  0.112406  0.682627
			 0.794354  0.087429  0.601130
			 0.873081 -0.002735  0.487567
			 0.529349  0.281797  0.800238
			-0.191692 -0.847613 -0.494780
			 0.042899 -0.863793 -0.502018
			-0.097740 -0.846243 -0.523755
			-0.022467 -0.898085 -0.439248
			 0.041957 -0.884887 -0.463912
			-0.256720 -0.961939 -0.093645
			 0.684153 -0.725497  0.074759
			-0.058122 -0.994012  0.092536
			 0.877029 -0.474315  0.076457
			 0.248515 -0.958825  0.137456
			 0.801512 -0.564412  0.197529
			 0.781141 -0.574187  0.245209
			 0.594622 -0.685073  0.420832
			 0.895333 -0.383473  0.226555
			 0.793212 -0.542733  0.276142
			 0.539615 -0.770389  0.339583
			 0.657140 -0.722220  0.215792
			 0.572953 -0.804919  0.154374
			-0.127922 -0.842954 -0.522555
			 0.089498 -0.841403 -0.532945
			 0.017909 -0.745271 -0.666521
			-0.154363 -0.783438 -0.601995
			-0.274203 -0.771284 -0.574399
			-0.347828 -0.791660 -0.502285
			-0.345018 -0.845430 -0.407689
			-0.371519 -0.864736 -0.337943
			-0.345282 -0.908998 -0.233457
			 0.799350 -0.208493  0.563534
			 0.812543 -0.503472  0.293751
			-0.246934  0.922426  0.296907
			-0.423832  0.886316  0.186577
			-0.353185  0.915308  0.193573
			-0.126262  0.926634  0.354128
			-0.269624  0.918343  0.289740
			-0.606516  0.786363  0.117352
			-0.552234  0.736936  0.389824
			-0.596927  0.795517  0.104068
			-0.474492  0.738763  0.478630
			-0.438905  0.861549  0.255137
			 0.317556  0.856522  0.406852
			-0.321927 -0.908614 -0.266052
			-0.368766 -0.830111 -0.418244
			-0.256706 -0.860967 -0.439134
			-0.540804 -0.707575 -0.454828
			-0.795975 -0.421287 -0.434673
			-0.661720 -0.511976 -0.547729
			-0.149771 -0.887576 -0.435635
			-0.832548 -0.283158 -0.476116
			-0.845950 -0.108271 -0.522156
			-0.784319  0.087694 -0.614128
			-0.682115  0.342486 -0.646082
			-0.697895  0.191228 -0.690199
			-0.926960  0.073580 -0.367873
			-0.811753  0.010074 -0.583914
			-0.576067  0.337487 -0.744479
			-0.522892  0.500452 -0.690023
			-0.577556  0.384311 -0.720232
			-0.559666  0.392116 -0.730082
			-0.575689  0.803918 -0.149323
			-0.492183  0.740715 -0.457271
			-0.465618  0.640585 -0.610615
			-0.437725  0.687797 -0.579079
			-0.379676 -0.871421 -0.310600
			 0.083840  0.886252  0.455552
			 0.289438  0.816309  0.499865
			 0.099534  0.793756  0.600036
			 0.026223  0.745105  0.666431
			-0.125548  0.735852  0.665402
			 0.240575  0.817301  0.523586
			 0.635706  0.305143  0.709059
			 0.703043  0.090879  0.705316
			 0.532220  0.278889  0.799351
			 0.776893  0.155544  0.610117
			-0.158873  0.575469  0.802244
			 0.039705  0.482991  0.874725
			 0.398890  0.305646  0.864562
			 0.772162  0.255733  0.581692
			 0.792876  0.199422  0.575829
			 0.735381  0.208097  0.644912
			 0.761835  0.214882  0.611092
			 0.793515  0.312824  0.521991
			 0.798109  0.202498  0.567465
			 0.830111 -0.214204  0.514813
			 0.826318  0.026094  0.562598
			 0.807391 -0.327070  0.491065
			 0.947311 -0.107563  0.301715
			 0.964003  0.087360  0.251131
			 0.793243 -0.030918  0.608119
			 0.807346 -0.049863  0.587967
			 0.891962  0.170367  0.418783
			 0.859298 -0.012040  0.511334
			 0.841763  0.213321  0.495912
			-0.220388 -0.858488 -0.463063
			 0.061532 -0.804945 -0.590150
			-0.141199 -0.877847 -0.457654
			-0.128577 -0.903253 -0.409392
			-0.206082 -0.861817 -0.463467
			 0.027981 -0.858707 -0.511703
			-0.109096 -0.810609 -0.575336
			-0.313420 -0.933026 -0.176719
			-0.179887 -0.964144 -0.195109
			-0.031875 -0.999487  0.003051
			-0.066666 -0.987227  0.144704
			-0.330508 -0.927420 -0.175090
			 0.480045 -0.862931  0.157820
			 0.285480 -0.934052  0.214586
			 0.844398 -0.526495  0.098969
			 0.926833 -0.284050  0.245551
			 0.909227 -0.355227  0.217071
			 0.849355 -0.479310  0.221039
			 0.726269 -0.636933  0.258551
			-0.203506 -0.581215 -0.787892
			 0.018791 -0.655446 -0.755008
			-0.115121 -0.526273 -0.842487
			-0.295138 -0.605238 -0.739311
			-0.444346 -0.575944 -0.686181
			-0.395334 -0.515682 -0.760120
			-0.413224 -0.831688 -0.370866
			-0.421621 -0.763864 -0.488617
			-0.520698 -0.554806 -0.648894
			-0.400593 -0.865375 -0.301082
			 0.825696 -0.523590  0.209950
			-0.154046  0.980692  0.120467
			-0.160031  0.983862  0.080036
			-0.288028  0.944823  0.156043
			-0.139438  0.951334  0.274811
			 0.028190  0.912195  0.408786
			 0.235158  0.846748  0.477199
			-0.402395  0.822007  0.402967
			-0.582422  0.793337  0.177204
			-0.520976  0.852540 -0.041939
			-0.621207  0.737850 -0.263969
			-0.202896  0.953634  0.222295
			 0.758855  0.588820  0.278263
			 0.763379  0.613471  0.202252
			-0.400874 -0.757827 -0.514780
			-0.756963 -0.262402 -0.598458
			-0.636365 -0.229186 -0.736555
			-0.557930 -0.442896 -0.701824
			-0.705862 -0.069775 -0.704905
			-0.609222  0.016577 -0.792826
			-0.586113  0.111645 -0.802500
			-0.548322  0.196368 -0.812886
			-0.507248  0.275511 -0.816574
			-0.483132  0.353943 -0.800817
			-0.325341  0.531166 -0.782315
			-0.287703  0.390231 -0.874612
			-0.549131  0.260684 -0.794040
			-0.573358  0.734097 -0.363817
			-0.564380  0.603810 -0.562928
			-0.445373  0.523455 -0.726387
			 0.072193  0.764369  0.640724
			-0.357212  0.426076  0.831179
			-0.250262  0.526685  0.812387
			 0.651951  0.074543  0.754588
			 0.737426 -0.122049  0.664309
			-0.015375  0.607570  0.794117
			 0.183038  0.501608  0.845510
			 0.564335  0.282657  0.775649
			 0.764477  0.351485  0.540402
			 0.795215  0.340491  0.501696
			 0.796157  0.061025  0.602005
			 0.858832 -0.062167  0.508471
			 0.826928  0.044838  0.560518
			 0.825658  0.100542  0.555139
			 0.799823  0.316548  0.509981
			 0.814435  0.307573  0.492031
			 0.824801  0.306206  0.475333
			 0.787063  0.453561  0.418108
			 0.757200  0.444075  0.479004
			 0.811947  0.408467  0.417010
			 0.832444  0.206368  0.514247
			 0.841793 -0.055839  0.536904
			 0.853273 -0.025642  0.520834
			 0.885874 -0.201467  0.417897
			 0.984481 -0.157955  0.076466
			 0.826482  0.186955  0.531013
			 0.956991 -0.252681  0.142547
			 0.954859  0.046728  0.293360
			 0.995814 -0.028518  0.086841
			 0.965191  0.105168  0.239472
			 0.903667  0.271996  0.330763
			 0.733628  0.320593  0.599174
			 0.877599  0.291224  0.380800
			 0.852500  0.310592  0.420448
			 0.063655 -0.778331 -0.624619
			 0.046814 -0.600115 -0.798543
			-0.369145 -0.701510 -0.609602
			-0.316073 -0.578642 -0.751845
			-0.159476 -0.618308 -0.769586
			-0.104409 -0.674153 -0.731174
			-0.173645 -0.973929 -0.145979
			-0.304718 -0.934888 -0.182018
			-0.231444 -0.960389 -0.155198
			 0.069126 -0.982062 -0.175433
			 0.338700 -0.935854 -0.097261
			 0.217169 -0.967603 -0.128774
			 0.321772 -0.924828  0.202868
			 0.589036 -0.795113  0.144334
			 0.382801 -0.922902 -0.041429
			 0.794442 -0.544456  0.269127
			 0.619507 -0.705742  0.343714
			 0.767038 -0.640855  0.030936
			 0.921316 -0.291405  0.257409
			 0.932246 -0.268461  0.242580
			 0.855938 -0.420336  0.301145
			 0.960961 -0.234010  0.147624
			-0.412638 -0.373248 -0.830913
			-0.340153 -0.317192 -0.885260
			-0.097872 -0.408879 -0.907325
			-0.278068 -0.255711 -0.925900
			-0.512495 -0.280778 -0.811488
			-0.548867 -0.276168 -0.788972
			-0.531885 -0.715534 -0.452890
			-0.470679 -0.776682 -0.418600
			-0.521559 -0.703535 -0.482717
			-0.541726 -0.256838 -0.800354
			-0.555993 -0.492783 -0.669355
			-0.282118 -0.908247 -0.309025
			-0.378305 -0.685613 -0.621949
			-0.300445 -0.734452 -0.608533
			 0.732846 -0.679795 -0.028574
			 0.861216 -0.476148  0.177734
			 0.052560  0.945462  0.321462
			 0.030246  0.998974  0.033710
			 0.038731  0.990536  0.131674
			-0.435758  0.879095  0.193150
			-0.064985  0.978521  0.195637
			-0.321956  0.935026  0.148560
			-0.210180  0.970433  0.118676
			 0.184414  0.888727  0.419710
			 0.356379  0.866218  0.350229
			-0.543207  0.777185  0.317662
			-0.320703  0.912214  0.254979
			-0.601988  0.727279 -0.329659
			-0.505186  0.809633 -0.298798
			-0.374866  0.910767 -0.173147
			-0.563175  0.683568 -0.464293
			-0.607118  0.545612 -0.577681
			-0.406102 -0.090552 -0.909330
			-0.544995 -0.128611 -0.828516
			-0.506750 -0.365079 -0.780975
			-0.260353 -0.096022 -0.960727
			-0.474424 -0.075298 -0.877070
			-0.432332 -0.018191 -0.901531
			-0.495088  0.025018 -0.868482
			-0.335488  0.273241 -0.901547
			-0.187000  0.283670 -0.940512
			-0.008748  0.368562 -0.929562
			-0.251600  0.382931 -0.888854
			-0.226241  0.177973 -0.957675
			-0.498655  0.148633 -0.853962
			-0.439034  0.487429 -0.754760
			-0.466681  0.310570 -0.828103
			-0.037875  0.853647  0.519473
			-0.361014  0.530185  0.767185
			-0.351821  0.506802  0.787003
			-0.105029  0.622871  0.775242
			-0.022646  0.681722  0.731261
			 0.181589  0.715720  0.674366
			 0.008207  0.802473  0.596632
			 0.397800  0.570730  0.718347
			 0.753557  0.548493  0.362363
			 0.862769 -0.182127  0.471656
			 0.881882 -0.293662  0.368846
			 0.864756 -0.195050  0.462767
			 0.862641 -0.057087  0.502585
			 0.810999  0.331620  0.481984
			 0.939334  0.052752  0.338923
			 0.867446  0.258128  0.425332
			 0.819016  0.327484  0.471133
			 0.831486  0.449688  0.326207
			 0.836172  0.377737  0.397658
			 0.752938  0.598532  0.273576
			 0.770807  0.612960  0.173601
			 0.908832 -0.022725  0.416542
			 0.829971 -0.444840  0.336549
			 0.832484 -0.398416  0.385013
			 0.865471 -0.334404  0.373007
			 0.898699 -0.210370  0.384817
			 0.984134 -0.097423 -0.148285
			 0.997874 -0.064088 -0.011811
			 0.524569  0.591777  0.612068
			 0.743146  0.489421  0.456290
			 0.862394  0.492016  0.119148
			 0.981284  0.127228  0.144550
			 0.993229 -0.115724  0.010176
			 0.879573  0.450671  0.152471
			 0.802365  0.506491  0.315719
			 0.053796 -0.677142 -0.733883
			 0.078124 -0.532581 -0.842766
			-0.024841 -0.370832 -0.928368
			-0.299626 -0.422806 -0.855254
			-0.461357 -0.091043 -0.882531
			-0.241278 -0.348542 -0.905706
			-0.051509 -0.534318 -0.843712
			 0.058478 -0.992284 -0.109329
			-0.330775 -0.933756 -0.136705
			-0.242872 -0.933541 -0.263657
			-0.021941 -0.975029 -0.220991
			 0.265370 -0.946437 -0.183944
			 0.591774 -0.805001 -0.042151
			 0.747368 -0.663229  0.039603
			 0.623918 -0.781070 -0.025625
			 0.456613 -0.879901 -0.131450
			 0.509231 -0.847989 -0.146963
			 0.590538 -0.792874 -0.150385
			 0.595318 -0.789473 -0.149427
			 0.740283 -0.596554  0.310007
			 0.884347 -0.390920  0.255171
			 0.762070 -0.644640  0.060731