<?xml version="1.0"?>
<VTKFile type="PolyData" version="0.1" byte_order="LittleEndian" compressor="vtkZLibDataCompressor">
	<PolyData>
		<Piece NumberOfPoints="1884" NumberOfVerts="0" NumberOfLines="0" NumberOfStrips="0" NumberOfPolys="3725">
		<PointData Normals="Normals">
		<DataArray type="Float32" Name="Normals" NumberOfComponents="3" format="ascii">
			 0.163324 -0.904675 -0.393558
			 0.453621 -0.792480 -0.407681
			 0.486150 -0.779279 -0.395453
			 0.315430 -0.876111 -0.364600
			 0.127677 -0.931678 -0.340110
			-0.155975 -0.943674 -0.291808
			-0.229989 -0.943961 -0.236732
			-0.048244 -0.977375 -0.205939
			 0.614744 -0.670981 -0.414577
			 0.566867 -0.667963 -0.482170
			 0.499475 -0.699424 -0.511206
			 0.358115 -0.861215 -0.360641
			 0.314019 -0.929510 -0.193401
			 0.658353 -0.699342 -0.278375
			 0.178024 -0.966746 -0.183600
			 0.040637 -0.945168 -0.324047
			-0.219937 -0.945681 -0.239404
			-0.414004 -0.898609 -0.145266
			-0.431742 -0.901055  0.041208
			-0.186485 -0.981919  0.032540
			 0.708631 -0.588279 -0.389576
			 0.667636 -0.546465 -0.505607
			 0.552114 -0.606969 -0.571628
			 0.543401 -0.598465 -0.588689
			 0.639513 -0.534963 -0.552121
			 0.236665 -0.879642 -0.412577
			 0.426474 -0.754378 -0.499033
			 0.613415 -0.544159 -0.572375
			 0.223384 -0.969368 -0.102110
			-0.225646 -0.971006  0.078939
			 0.541112 -0.825894 -0.158419
			 0.610012 -0.786385 -0.097390
			 0.538595 -0.823595 -0.177782
			-0.124396 -0.935420 -0.330930
			-0.269100 -0.949703 -0.160155
			-0.489125 -0.871115  0.043760
			-0.584527 -0.776473  0.235410
			 0.685458 -0.712125 -0.151744
			 0.705206 -0.419030 -0.571925
			 0.679717 -0.517082 -0.520202
			 0.784065 -0.468127 -0.407553
			 0.795908 -0.584818 -0.156583
			 0.607901 -0.433549 -0.665200
			 0.415820 -0.604203 -0.679730
			 0.487644 -0.494325 -0.719616
			 0.381876 -0.729937 -0.566889
			 0.154657 -0.880519 -0.448070
			 0.018742 -0.997710  0.064984
			 0.178284 -0.983941 -0.008719
			-0.020538 -0.977392  0.210433
			-0.257523 -0.925271  0.278487
			-0.348718 -0.888139  0.299341
			-0.585077 -0.734405  0.343999
			 0.398174 -0.913950 -0.078440
			 0.327686 -0.941078  0.083636
			 0.279139 -0.932439  0.229433
			 0.597579 -0.787654  0.149999
			-0.144915 -0.926697 -0.346745
			-0.360665 -0.901556 -0.238993
			-0.401142 -0.894498 -0.197380
			-0.417117 -0.905647 -0.076271
			-0.492780 -0.865262  0.092140
			-0.617017 -0.727783  0.299370
			-0.705322 -0.575769  0.413536
			 0.775345 -0.401110 -0.487803
			 0.629508 -0.279207 -0.725096
			 0.808607 -0.245445 -0.534706
			 0.816234 -0.447530 -0.365347
			 0.879936 -0.267689 -0.392499
			 0.747260 -0.638656  0.183630
			 0.848150 -0.469193  0.245965
			 0.870364 -0.409093 -0.274062
			 0.876470 -0.440369 -0.194618
			 0.915381 -0.402386  0.012726
			 0.577006 -0.396772 -0.713888
			 0.275298 -0.545412 -0.791667
			 0.291704 -0.735389 -0.611646
			 0.214807 -0.655634 -0.723879
			 0.517695 -0.357847 -0.777134
			 0.327217 -0.396108 -0.857920
			 0.130199 -0.852155 -0.506834
			 0.036432 -0.987492  0.153401
			-0.589102 -0.708599  0.388390
			-0.306703 -0.885033  0.350216
			-0.570983 -0.722721  0.389427
			 0.070677 -0.951579  0.299170
			 0.209236 -0.940732  0.266915
			-0.147584 -0.920446  0.361936
			-0.209769 -0.895631  0.392228
			 0.639240 -0.696310  0.326381
			 0.316256 -0.897780  0.306550
			-0.124685 -0.918127 -0.376161
			-0.326056 -0.931645 -0.160388
			-0.458987 -0.876332 -0.146198
			-0.429739 -0.899829 -0.075043
			-0.535697 -0.843314  0.043019
			-0.517126 -0.841982  0.153777
			-0.602631 -0.724557  0.334444
			-0.664708 -0.533899  0.522604
			-0.719562 -0.542970  0.432914
			-0.697456 -0.531644  0.480530
			-0.773699 -0.521807  0.359316
			-0.702571 -0.594796  0.390655
			-0.568081 -0.699644  0.433339
			 0.494979 -0.212929 -0.842411
			 0.512238 -0.186689 -0.838307
			 0.703759 -0.175987 -0.688296
			 0.602233 -0.186638 -0.776197
			 0.846364 -0.115161 -0.520006
			 0.877023 -0.158703 -0.453480
			 0.904034 -0.123735 -0.409160
			 0.870711 -0.341498 -0.353894
			 0.927273 -0.072975 -0.367205
			 0.933484 -0.245289 -0.261611
			 0.934098 -0.115555 -0.337800
			 0.942538 -0.161513 -0.292463
			 0.695446 -0.552668  0.459253
			 0.937622 -0.252240  0.239250
			 0.906253 -0.268008  0.326921
			 0.836138 -0.399234  0.376146
			 0.882462 -0.300627  0.361780
			 0.947602 -0.293228 -0.126759
			 0.983672 -0.123038  0.131347
			 0.220075 -0.474008 -0.852575
			 0.076007 -0.808145 -0.584058
			 0.223149 -0.597505 -0.770190
			 0.059168 -0.780529 -0.622313
			 0.035285 -0.777972 -0.627308
			 0.412214 -0.263040 -0.872290
			 0.309558 -0.436302 -0.844875
			 0.359413 -0.270595 -0.893085
			-0.102840 -0.945565  0.308756
			-0.174645 -0.916406  0.360138
			 0.118870 -0.943361  0.309741
			-0.503239 -0.740734  0.445045
			 0.354665 -0.890994  0.283447
			 0.533209 -0.762827  0.365764
			-0.014766 -0.950517  0.310323
			-0.050780 -0.924703  0.377287
			-0.117453 -0.868619 -0.481359
			-0.315237 -0.919870 -0.233375
			-0.341036 -0.939848 -0.019494
			-0.280061 -0.959309 -0.035944
			-0.350260 -0.936627  0.006928
			-0.548730 -0.828826  0.109289
			-0.399266 -0.912557  0.088467
			-0.570934 -0.814390  0.103942
			-0.589298 -0.795165 -0.142970
			-0.316165 -0.929958 -0.187666
			-0.539188 -0.700763  0.467127
			-0.618206 -0.682323  0.390200
			-0.552692 -0.646133  0.526350
			-0.603741 -0.566394  0.560976
			-0.647136 -0.502357  0.573456
			-0.660658 -0.600525  0.450446
			-0.692856 -0.600906  0.398577
			-0.677011 -0.595695  0.432208
			-0.655998 -0.599541  0.458495
			-0.797649 -0.500780  0.336120
			-0.800793 -0.544075  0.250426
			-0.737293 -0.617524  0.273976
			-0.735152 -0.552971  0.392140
			-0.458900 -0.799157  0.388275
			-0.613005 -0.695302  0.375207
			-0.633216 -0.618284  0.465577
			 0.407572 -0.213220 -0.887932
			 0.377474 -0.151755 -0.913501
			 0.621837 -0.155758 -0.767502
			 0.759162 -0.079652 -0.646010
			 0.850373 -0.067848 -0.521788
			 0.877346 -0.098944 -0.469547
			 0.876330 -0.081917 -0.474696
			 0.929105  0.028117 -0.368747
			 0.945643 -0.039841 -0.322756
			 0.977214 -0.149288 -0.150881
			 0.960596 -0.168983 -0.220680
			 0.949357 -0.091301 -0.300641
			 0.951367 -0.054384 -0.303223
			 0.972666 -0.079872 -0.218039
			 0.493542 -0.670879  0.553478
			 0.270321 -0.693346  0.667981
			 0.318232 -0.655729  0.684652
			 0.775120 -0.396192  0.492159
			 0.634450 -0.541853  0.551243
			 0.916503 -0.097429  0.387983
			 0.827397 -0.370084  0.422436
			 0.868014 -0.248203  0.430055
			 0.989115 -0.143617 -0.032028
			 0.999415 -0.033363  0.007467
			 0.948649  0.053807  0.311722
			 0.920368  0.022145  0.390425
			 0.005053 -0.925961 -0.377584
			 0.095201 -0.880292 -0.464782
			-0.088616 -0.895090 -0.436992
			-0.116297 -0.941043 -0.317668
			 0.157749 -0.582575 -0.797322
			 0.114219 -0.729984 -0.673853
			 0.210443 -0.604320 -0.768447
			 0.356769 -0.527970 -0.770690
			 0.508237 -0.406937 -0.759011
			 0.490020 -0.243277 -0.837077
			 0.171034 -0.902698  0.394821
			 0.226974 -0.852848  0.470248
			-0.076779 -0.918106  0.388827
			-0.382752 -0.852640  0.355676
			-0.136345 -0.973891 -0.181511
			-0.406961 -0.913436  0.004134
			-0.183375 -0.983043  0.000169
			-0.302693 -0.948092  0.097463
			-0.197134 -0.967907  0.155869
			-0.345169 -0.937528 -0.043589
			-0.359466 -0.897848  0.254271
			-0.591807 -0.770132  0.238036
			-0.418715 -0.807624  0.415237
			-0.551985 -0.739988  0.384358
			-0.464827 -0.672127  0.576352
			-0.402854 -0.736007  0.544061
			-0.433362 -0.732260  0.525350
			-0.545202 -0.693296  0.471270
			-0.626793 -0.645032  0.437109
			-0.614424 -0.692654  0.377773
			-0.785159 -0.531740  0.317455
			-0.762859 -0.581541  0.282589
			-0.782827 -0.585263  0.211306
			-0.714165 -0.636455  0.291366
			-0.697642 -0.594317  0.400103
			-0.741649 -0.545580  0.390255
			-0.242795 -0.841779  0.482140
			-0.479275 -0.704209  0.523819
			-0.263342 -0.733488  0.626615
			-0.424645 -0.690058  0.586086
			-0.550006 -0.670957  0.497303
			 0.387277 -0.189779 -0.902219
			 0.382583 -0.402199 -0.831785
			 0.529392 -0.386217 -0.755367
			 0.739591 -0.198017 -0.643268
			 0.783440  0.072490 -0.617225
			 0.678942 -0.141252 -0.720476
			 0.685279 -0.187144 -0.703825
			 0.590640  0.096813 -0.801107
			 0.640828  0.022101 -0.767366
			 0.823471 -0.004930 -0.567337
			 0.948844  0.071732 -0.307489
			 0.929635  0.155795 -0.333925
			 0.902798  0.171559 -0.394365
			 0.890167  0.100412 -0.444432
			 0.965806  0.003382 -0.259243
			 0.986748  0.072778 -0.145023
			 0.997738  0.041983  0.052505
			 0.206838 -0.820518  0.532887
			-0.108307 -0.772532  0.625671
			 0.106131 -0.762075  0.638731
			-0.078081 -0.728515  0.680565
			-0.236911 -0.707125  0.666219
			 0.005986 -0.656161  0.754597
			 0.612107 -0.466654  0.638404
			 0.398754 -0.541622  0.740028
			 0.680973 -0.367195  0.633596
			 0.815203 -0.298067  0.496589
			 0.861611 -0.114638  0.494453
			 0.884901 -0.091150  0.456773
			 0.881875  0.028070  0.470646
			 0.960235  0.104698  0.258817
			 0.936010  0.131353  0.326546
			 0.919407  0.087534  0.383443
			 0.909185 -0.011363  0.416238
			-0.136664 -0.914882 -0.379887
			-0.072419 -0.696327 -0.714062
			-0.097189 -0.794382 -0.599592
			 0.215871 -0.615231 -0.758215
			 0.013142 -0.656575 -0.754147
			 0.439314 -0.538985 -0.718678
			 0.487563 -0.600425 -0.633855
			 0.717607 -0.406432 -0.565557
			 0.683624 -0.291211 -0.669219
			 0.557999 -0.223981 -0.799043
			-0.111521 -0.858972  0.499730
			-0.366009 -0.898224 -0.243373
			 0.017368 -0.970429  0.240759
			 0.016455 -0.999278  0.034233
			-0.175461 -0.954762 -0.240089
			-0.305184 -0.934760  0.181897
			-0.347610 -0.935321  0.065884
			-0.190210 -0.938411  0.288453
			-0.277551 -0.898689 -0.339594
			-0.172332 -0.830791  0.529234
			-0.307650 -0.792736  0.526232
			-0.339198 -0.704791  0.623069
			-0.489073 -0.765143  0.418764
			-0.515967 -0.753564  0.407332
			-0.601628 -0.720887  0.344044
			-0.638302 -0.699245  0.321911
			-0.632895 -0.653464  0.415245
			-0.673276 -0.632919  0.382246
			-0.638849 -0.641614  0.424504
			-0.694979 -0.606998  0.385433
			-0.348754 -0.703702  0.619011
			 0.553736 -0.205123 -0.807032
			 0.462016 -0.355100 -0.812678
			 0.456734 -0.561518 -0.689993
			 0.641673 -0.422307 -0.640244
			 0.943610 -0.030805 -0.329623
			 0.800250 -0.245196 -0.547246
			 0.623072  0.300768 -0.722025
			 0.865142  0.196134 -0.461585
			 0.652104 -0.001970 -0.758127
			 0.541320  0.101271 -0.834696
			 0.728153  0.088569 -0.679668
			 0.923521  0.236641 -0.301845
			 0.928559  0.236187 -0.286347
			 0.964202  0.135007 -0.228228
			 0.887061  0.256860 -0.383595
			 0.894353  0.318146 -0.314509
			 0.774115  0.202500 -0.599783
			 0.796488  0.231688 -0.558505
			 0.967387  0.160336 -0.196099
			 0.987960  0.150487  0.035904
			 0.961733  0.108822  0.251449
			 0.037458 -0.692204  0.720730
			 0.173810 -0.619704  0.765348
			 0.506154 -0.472926  0.721213
			 0.537974 -0.398455  0.742844
			 0.593087 -0.320379  0.738651
			 0.804404 -0.201985  0.558691
			 0.777120 -0.096796  0.621864
			 0.851338 -0.102439  0.514520
			 0.900835 -0.162060  0.402781
			 0.880217  0.027359  0.473782
			 0.914482  0.087844  0.394975
			 0.903338  0.031381  0.427781
			-0.264070 -0.701283 -0.662170
			-0.279076 -0.806739 -0.520855
			-0.327624 -0.713577 -0.619249
			-0.051677 -0.664698 -0.745323
			 0.231350 -0.697188 -0.678533
			 0.551234 -0.626765 -0.550733
			 0.845828 -0.303485 -0.438716
			 0.804342 -0.426034 -0.414162
			 0.736293 -0.290354 -0.611202
			-0.394892 -0.777390 -0.489617
			 0.184635 -0.981924  0.041658
			 0.059016 -0.876898  0.477040
			 0.201286 -0.899111  0.388694
			 0.132648 -0.966083  0.221557
			 0.138173 -0.989192 -0.049059
			 0.057886 -0.962143 -0.266328
			-0.081173 -0.980192 -0.180651
			-0.087095 -0.925976 -0.367401
			-0.221318 -0.828718 -0.514047
			-0.196515 -0.818772  0.539439
			 0.110573 -0.834290  0.540124
			-0.064852 -0.829588  0.554596
			-0.130170 -0.824964  0.549991
			-0.246079 -0.739506  0.626559
			-0.132397 -0.832641  0.537755
			-0.297381 -0.840187  0.453487
			-0.275766 -0.720311  0.636478
			-0.386746 -0.830840  0.400166
			-0.381759 -0.811191  0.442978
			-0.537606 -0.762074  0.360864
			-0.591922 -0.750029  0.295103
			-0.584365 -0.610413  0.534709
			-0.504168 -0.549700  0.666066
			-0.550854 -0.727215  0.409534
			-0.495814 -0.552381  0.670107
			-0.500792 -0.505234  0.702813
			-0.463956 -0.685936  0.560568
			-0.510949 -0.685402  0.518802
			-0.575635 -0.621364  0.531555
			-0.569967 -0.601039  0.560259
			-0.159006 -0.705118  0.691033
			 0.742821 -0.314352 -0.591101
			 0.513854 -0.502939 -0.694987
			 0.400521 -0.687715 -0.605501
			 0.454761 -0.651802 -0.606915
			 0.650260 -0.430991 -0.625627
			 0.565710 -0.467763 -0.679096
			 0.977557  0.004235 -0.210627
			 0.993734 -0.101484 -0.046842
			 0.899872 -0.087953 -0.427194
			 0.864195  0.211932 -0.456346
			 0.974976 -0.099099 -0.198999
			 0.714722 -0.257660 -0.650218
			 0.791798 -0.070331 -0.606721
			 0.333880  0.171619 -0.926861
			 0.554354  0.263084 -0.789606
			 0.451623  0.038470 -0.891379
			 0.621825  0.117784 -0.774248
			 0.748201  0.133218 -0.649960
			 0.908261  0.301140 -0.290476
			 0.923571  0.310570 -0.224863
			 0.945190  0.209603 -0.250366
			 0.934753  0.239698 -0.262262
			 0.798547  0.314418 -0.513288
			 0.806969  0.358738 -0.469156
			 0.859189  0.448593 -0.246087
			 0.862391  0.464692 -0.200857
			 0.722546  0.132103 -0.678584
			 0.941658  0.193524 -0.275371
			 0.969314  0.193907 -0.151099
			 0.958385  0.273194  0.082839
			 0.903011  0.213087  0.373048
			 0.914342  0.246048  0.321620
			-0.258571 -0.686550  0.679551
			-0.058887 -0.606386  0.792987
			 0.248092 -0.520200  0.817216
			 0.390052 -0.463705  0.795511
			 0.315732 -0.332342  0.888742
			 0.567209 -0.151075  0.809599
			 0.794776  0.107849  0.597244
			 0.660416  0.096146  0.744719
			 0.629686  0.064309  0.774184
			 0.847755 -0.033223  0.529346
			 0.828137  0.138773  0.543076
			 0.848113  0.062388  0.526130
			 0.859322  0.199541  0.470902
			 0.871104  0.169353  0.460975
			 0.869812  0.211087  0.445947
			-0.159043 -0.714626 -0.681187
			-0.044570 -0.710849 -0.701931
			 0.036309 -0.688106 -0.724701
			 0.496702 -0.652265 -0.572571
			 0.252180 -0.702849 -0.665138
			 0.526299 -0.636610 -0.563681
			 0.779621 -0.492981 -0.386214
			 0.887222 -0.338803 -0.313130
			 0.240170 -0.965822  0.097498
			 0.197728 -0.975356 -0.097903
			 0.298467 -0.825227  0.479498
			 0.250063 -0.943012  0.219540
			 0.294506 -0.895851  0.332743
			 0.064911 -0.936712 -0.344029
			 0.063085 -0.933520 -0.352932
			 0.039501 -0.846117 -0.531531
			-0.019408 -0.833512 -0.552161
			-0.103428 -0.837463  0.536617
			-0.038090 -0.821598  0.568794
			 0.301927 -0.798731  0.520451
			 0.310682 -0.778435  0.545450
			 0.003252 -0.841884  0.539649
			 0.177810 -0.827057  0.533254
			-0.004466 -0.841886  0.539637
			 0.040637 -0.825832  0.562450
			-0.145703 -0.868406  0.473964
			-0.430399 -0.818371  0.380822
			-0.336487 -0.839273  0.427080
			-0.168011 -0.896108  0.410807
			-0.489082 -0.726476  0.482734
			-0.363490 -0.606539  0.707096
			-0.337478 -0.494980  0.800689
			-0.350525 -0.414929  0.839623
			-0.263078 -0.535231  0.802694
			-0.403221 -0.366365  0.838564
			-0.509277 -0.592303  0.624351
			-0.470352 -0.405631  0.783730
			-0.425530 -0.334016  0.841046
			-0.354977 -0.654343  0.667702
			 0.777805 -0.390073 -0.492810
			 0.604027 -0.557107 -0.569898
			 0.630021 -0.604070 -0.488029
			 0.642479 -0.599758 -0.476982
			 0.557014 -0.518333 -0.648896
			 0.599398 -0.293942 -0.744527
			 0.928623  0.117842 -0.351813
			 0.823906 -0.341945 -0.451942
			 0.935806 -0.216211 -0.278425
			 0.964601  0.161151 -0.208749
			 0.846833  0.100222 -0.522330
			 0.922750 -0.079604 -0.377089
			 0.680540 -0.015408 -0.732549
			 0.765671  0.145064 -0.626662
			 0.437136  0.054236 -0.897758
			 0.275377  0.109504 -0.955079
			 0.689446 -0.145073 -0.709661
			 0.331968 -0.164650 -0.928810
			 0.509999  0.065695 -0.857663
			 0.895573  0.343405 -0.282883
			 0.882636  0.309374 -0.353894
			 0.966106  0.139665 -0.217101
			 0.887955  0.308337 -0.341268
			 0.948975  0.188696 -0.252665
			 0.951470  0.203458 -0.230888
			 0.736781  0.315479 -0.598019
			 0.761556  0.169932 -0.625424
			 0.791870  0.243388 -0.560092
			 0.837666  0.346772 -0.421976
			 0.874832  0.372680 -0.309480
			 0.851650  0.475142 -0.221206
			 0.846098  0.512898 -0.145097
			 0.908913  0.383341 -0.164093
			 0.910900  0.411760  0.026751
			 0.919104  0.348558 -0.183725
			 0.861495  0.476979 -0.174120
			 0.537881 -0.069411 -0.840159
			 0.654008 -0.092847 -0.750768
			 0.902226  0.301585  0.308277
			 0.853952  0.262494  0.449292
			 0.844991  0.253681  0.470782
			-0.113239 -0.601823  0.790561
			 0.014321 -0.585924  0.810240
			 0.178624 -0.501951  0.846250
			 0.421748 -0.185632  0.887507
			 0.027724 -0.451377  0.891902
			-0.069894 -0.417836  0.905830
			 0.028094 -0.347756  0.937164
			 0.310261 -0.224929  0.923659
			 0.507125  0.012202  0.861786
			 0.617299  0.225442  0.753736
			 0.476470  0.187044  0.859064
			 0.664409  0.301469  0.683870
			 0.840862  0.248892  0.480629
			 0.797455  0.284593  0.532045
			 0.823511  0.223525  0.521408
			 0.744056  0.331209  0.580242
			-0.046570 -0.685816 -0.726283
			-0.079610 -0.699835 -0.709855
			 0.011644 -0.757046 -0.653258
			 0.078788 -0.711749 -0.698001
			 0.242179 -0.683563 -0.688542
			 0.338958 -0.681301 -0.648797
			 0.598139 -0.591568 -0.540627
			 0.765276 -0.471187 -0.438561
			 0.900021 -0.347019 -0.263704
			 0.850105 -0.407365 -0.333730
			 0.245272 -0.967339  0.064001
			 0.138486 -0.954259 -0.264975
			 0.514694 -0.746001  0.422579
			 0.513875 -0.703131  0.491466
			 0.238273 -0.956007  0.171106
			 0.401415 -0.901076  0.164095
			-0.003714 -0.818867 -0.573972
			-0.018792 -0.844186 -0.535720
			 0.006161 -0.802679 -0.596380
			-0.002142 -0.835855 -0.548945
			 0.034827 -0.828493 -0.558915
			-0.004344 -0.777130 -0.629325
			 0.152944 -0.841985  0.517369
			 0.348076 -0.781626  0.517594
			 0.047744 -0.861897  0.504831
			 0.087433 -0.908399  0.408859
			-0.290361 -0.882955  0.368892
			-0.383999 -0.858606  0.339618
			-0.381978 -0.809213  0.446393
			-0.016052 -0.939388  0.342479
			-0.110365 -0.931228  0.347325
			-0.412046 -0.432258  0.802104
			-0.381073 -0.607915  0.696579
			-0.105454 -0.556330  0.824243
			-0.225051 -0.416542  0.880821
			-0.132716 -0.318006  0.938754
			-0.236491 -0.232763  0.943342
			-0.288666 -0.148823  0.945793
			-0.438560 -0.351663  0.827042
			-0.386541 -0.179596  0.904617
			-0.300269 -0.106203  0.947924
			 0.842589 -0.381351 -0.380283
			 0.766853 -0.436974 -0.470095
			 0.822315 -0.465757 -0.326906
			 0.686138 -0.410889 -0.600320
			 0.596775 -0.344621 -0.724635
			 0.618179 -0.095610 -0.780201
			 0.749979 -0.355435 -0.557851
			 0.360566 -0.425781 -0.829881
			 0.506502 -0.281799 -0.814890
			 0.854988 -0.027460 -0.517921
			 0.840610 -0.210854 -0.498915
			 0.747813  0.277961 -0.602920
			 0.770870  0.265088 -0.579213
			 0.791301  0.236661 -0.563768
			 0.820643  0.223113 -0.526085
			 0.670920  0.180685 -0.719180
			 0.587311  0.205469 -0.782846
			 0.687671  0.284301 -0.668043
			 0.325669  0.029309 -0.945029
			 0.414284 -0.128899 -0.900974
			 0.770431 -0.066691 -0.634025
			 0.836233  0.400256 -0.374847
			 0.872234  0.350949 -0.340650
			 0.835760  0.505641 -0.214086
			 0.829955  0.534138 -0.160846
			 0.749956  0.645202 -0.145877
			 0.736730  0.670204 -0.089755
			 0.758856  0.636413 -0.138261
			 0.882779  0.287735  0.371362
			 0.876638  0.340851  0.339598
			 0.814167  0.580605  0.005396
			 0.853348  0.471756  0.221906
			 0.130261 -0.245551  0.960592
			 0.316545 -0.036079  0.947891
			 0.392377  0.297481  0.870371
			 0.173095  0.079638  0.981680
			 0.340783  0.229272  0.911757
			 0.458963  0.362582  0.811103
			 0.530940  0.448903  0.718741
			 0.811705  0.267669  0.519123
			 0.563298  0.304451  0.768118
			 0.728281  0.239880  0.641923
			 0.651513  0.294681  0.699066
			 0.515774  0.356252  0.779142
			-0.079375 -0.720480 -0.688918
			-0.119369 -0.755720 -0.643924
			 0.028446 -0.724436 -0.688755
			 0.011389 -0.693173 -0.720682
			-0.063532 -0.734603 -0.675516
			 0.479414 -0.617367 -0.623715
			 0.397044 -0.619054 -0.677590
			 0.597371 -0.558478 -0.575544
			 0.716439 -0.463237 -0.521657
			 0.872088 -0.343937 -0.348095
			 0.882209 -0.323498 -0.342135
			 0.194727 -0.930954 -0.308878
			 0.361561 -0.931492  0.039961
			 0.311142 -0.921653  0.231833
			 0.604078 -0.733135  0.312415
			 0.621998 -0.642329  0.447808
			 0.657667 -0.636535  0.402862
			 0.645937 -0.692737  0.320751
			 0.541400 -0.703396  0.460566
			 0.444150 -0.895852  0.013405
			 0.291003 -0.935043 -0.202514
			-0.130667 -0.689014 -0.712871
			-0.077613 -0.740440 -0.667626
			 0.090274 -0.888593 -0.449726
			-0.065839 -0.774533 -0.629098
			-0.116862 -0.673927 -0.729497
			 0.205516 -0.885784  0.416112
			 0.388194 -0.796524  0.463525
			 0.134541 -0.895266  0.424733
			 0.242541 -0.883542  0.400658
			 0.198953 -0.901666  0.383949
			 0.041264 -0.902898  0.427870
			 0.040433 -0.950283  0.308751
			 0.255547 -0.818671  0.514270
			-0.274481 -0.816078  0.508603
			-0.020066 -0.936846  0.349167
			-0.105179 -0.894277  0.434979
			-0.193958 -0.830472  0.522204
			-0.187691 -0.812121  0.552478
			-0.354490 -0.431600  0.829493
			-0.329462 -0.227003  0.916474
			-0.361563 -0.066720  0.929957
			-0.316434 -0.553771  0.770200
			 0.049336 -0.173660  0.983569
			-0.127367  0.013660  0.991762
			-0.240616 -0.055990  0.969004
			-0.054148 -0.118069  0.991528
			-0.091056  0.054012  0.994380
			-0.110924  0.008460  0.993793
			-0.353703  0.105546  0.929384
			-0.335788  0.032065  0.941392
			-0.097466  0.086844  0.991443
			-0.192561  0.127429  0.972976
			 0.847749 -0.332199 -0.413480
			 0.762562 -0.232773 -0.603586
			 0.621243 -0.318183 -0.716112
			 0.635751 -0.027899 -0.771390
			 0.666262  0.373193 -0.645617
			 0.597246  0.382996 -0.704707
			 0.793433  0.315295 -0.520628
			 0.588917  0.314964 -0.744295
			 0.729884  0.096260 -0.676759
			 0.548819  0.286980 -0.785137
			 0.514529  0.368647 -0.774183
			 0.788558  0.439250 -0.430391
			 0.742919  0.620421 -0.251295
			 0.752488  0.610037 -0.248227
			 0.723142  0.614805 -0.314771
			 0.726936  0.659143 -0.192600
			 0.714304  0.697760  0.053860
			 0.727714  0.680086  0.088965
			 0.714055  0.672197 -0.195644
			 0.570105  0.820095 -0.049238
			 0.648405  0.754386  0.102341
			 0.862659  0.297919  0.408734
			 0.844203  0.409021  0.346444
			 0.776036  0.554399  0.300681
			 0.695704  0.705184  0.136790
			 0.848858  0.438573  0.295117
			 0.877918  0.357498  0.318519
			 0.135759  0.231181  0.963392
			 0.136596  0.235132  0.962317
			 0.281172  0.374370  0.883623
			 0.404355  0.407349  0.818879
			 0.347019  0.422500  0.837300
			 0.698005  0.437034  0.567266
			 0.362810  0.339642  0.867763
			 0.507052  0.321626  0.799659
			 0.416329  0.333443  0.845864
			 0.536371  0.434646  0.723456
			 0.497532  0.412027  0.763345
			-0.090645 -0.715017 -0.693206
			-0.197085 -0.756054 -0.624132
			-0.120654 -0.759280 -0.639482
			-0.009766 -0.702362 -0.711753
			 0.101792 -0.774538 -0.624283
			 0.380688 -0.673424 -0.633701
			-0.085428 -0.704695 -0.704349
			-0.032786 -0.677616 -0.734684
			 0.021741 -0.661523 -0.749610
			 0.730561 -0.451170 -0.512568
			 0.571396 -0.529477 -0.627025
			 0.717476 -0.426528 -0.550729
			 0.552313 -0.827892  0.097698
			 0.710029 -0.631831  0.310883
			 0.654640 -0.627823  0.421051
			 0.590540 -0.806589  0.026012
			 0.585146 -0.702659  0.404814
			 0.251875 -0.918649 -0.304374
			 0.357015 -0.914832 -0.188740
			 0.080185 -0.826600 -0.557048
			-0.181853 -0.698476 -0.692142
			-0.257661 -0.680315 -0.686136
			-0.139490 -0.637151 -0.758011
			-0.079493 -0.698207 -0.711469
			 0.051829 -0.671484 -0.739204
			 0.399293 -0.905702  0.142372
			 0.220022 -0.932496  0.286428
			 0.516719 -0.783685  0.344730
			 0.245786 -0.904456  0.348639
			 0.172460 -0.856257  0.486911
			 0.099457 -0.871602  0.480018
			 0.077385 -0.701489  0.708466
			 0.015516 -0.866378  0.499148
			-0.060200 -0.704225  0.707420
			-0.015533 -0.797055  0.603708
			 0.373325 -0.857213  0.354704
			 0.370444 -0.799482  0.472863
			 0.240372 -0.729982  0.639803
			 0.129304 -0.554334  0.822188
			-0.240196 -0.637729  0.731852
			-0.057963 -0.792866  0.606634
			-0.262889 -0.641169  0.720966
			-0.223170 -0.515078  0.827581
			-0.290047 -0.429613  0.855164
			-0.298125 -0.027663  0.954126
			-0.277152 -0.338959  0.899051
			-0.350164  0.128729  0.927801
			-0.068627  0.103144  0.992296
			 0.103982  0.230390  0.967527
			-0.263375  0.275176  0.924615
			-0.193775  0.340050  0.920227
			-0.291015  0.266897  0.918736
			 0.020376  0.257846  0.965971
			-0.068093  0.334827  0.939816
			 0.756648 -0.461684 -0.462960
			 0.674442 -0.512628 -0.531357
			 0.868791 -0.310911 -0.385405
			 0.818330 -0.124536 -0.561095
			 0.845148 -0.274274 -0.458802
			 0.807690 -0.233092 -0.541576
			 0.571731  0.498298 -0.651785
			 0.513256  0.442708 -0.735240
			 0.686450  0.409589 -0.600852
			 0.704002  0.444187 -0.554147
			 0.693125  0.341299 -0.634896
			 0.852017 -0.067373 -0.519160
			 0.785225  0.176841 -0.593422
			 0.622699  0.390025 -0.678327
			 0.607715  0.357673 -0.709050
			 0.479023  0.527393 -0.701708
			 0.755236  0.485235 -0.440642
			 0.673208  0.626117 -0.393406
			 0.687740  0.681707 -0.249579
			 0.634434  0.693543 -0.341308
			 0.664462  0.696761  0.270212
			 0.558893  0.731489  0.390593
			 0.589512  0.788035  0.177416
			 0.663453  0.701811 -0.259408
			 0.555784  0.804160 -0.210785
			 0.451030  0.877420 -0.163419
			 0.380094  0.924943 -0.002929
			 0.410848  0.893504  0.181260
			 0.502671  0.831335  0.237073
			 0.910142  0.273408  0.311272
			 0.838010  0.395301  0.376133
			 0.665149  0.699318  0.261784
			 0.642996  0.600648  0.475162
			 0.152789  0.390476  0.907846
			 0.340087  0.420084  0.841351
			 0.512678  0.599686  0.614441
			 0.350379  0.417465  0.838426
			 0.275185  0.391266  0.878171
			 0.364232  0.409987  0.836209
			 0.460339  0.454241  0.762728
			 0.459649  0.528776  0.713526
			-0.148072 -0.744084 -0.651470
			-0.073526 -0.593648 -0.801359
			-0.053008 -0.552244 -0.831996
			-0.154003 -0.614339 -0.773867
			-0.082306 -0.518911 -0.850857
			-0.119025 -0.728942 -0.674149
			 0.102845 -0.713155 -0.693421
			 0.179549 -0.731315 -0.657983
			-0.053899 -0.626494 -0.777561
			 0.467311 -0.650484 -0.598741
			-0.162888 -0.622476 -0.765501
			 0.443843 -0.886868 -0.128332
			 0.636957 -0.661545  0.395782
			 0.623319 -0.762767  0.172221
			 0.689118 -0.584924  0.427761
			 0.644447 -0.641295  0.416448
			 0.360421 -0.929501 -0.078260
			 0.448811 -0.856419 -0.255175
			 0.631687 -0.664958  0.398500
			 0.599713 -0.647403  0.470333
			 0.571529 -0.723543  0.387093
			 0.134428 -0.860457 -0.491470
			 0.222813 -0.873155 -0.433538
			 0.278098 -0.864071 -0.419575
			 0.036391 -0.682229 -0.730233
			 0.019253 -0.750787 -0.660264
			-0.175958 -0.649209 -0.739977
			-0.222410 -0.722656 -0.654448
			-0.270115 -0.689864 -0.671659
			-0.280699 -0.657384 -0.699324
			-0.117572 -0.490899 -0.863247
			-0.010586 -0.489243 -0.872083
			 0.002008 -0.632421 -0.774622
			-0.385413 -0.603817 -0.697755
			-0.025813 -0.629778 -0.776347
			-0.333086 -0.570809 -0.750487
			-0.041230 -0.710314 -0.702676
			-0.326735 -0.691175 -0.644610
			 0.405137 -0.898988  0.166384
			 0.277758 -0.957844  0.073388
			 0.477586 -0.737572  0.477387
			 0.275342 -0.870471  0.408004
			 0.449103 -0.827150  0.337831
			-0.038673 -0.489540  0.871123
			 0.039003 -0.648728  0.760020
			-0.053130 -0.411188  0.910001
			 0.002618 -0.697051  0.717017
			 0.036763 -0.652351  0.757025
			-0.104883 -0.483766  0.868890
			-0.107885 -0.395780  0.911986
			-0.005673 -0.493249  0.869870
			 0.333238 -0.670770  0.662586
			 0.298404 -0.610885  0.733332
			 0.228873 -0.663765  0.712063
			 0.147206 -0.418021  0.896431
			 0.060425 -0.341728  0.937855
			-0.064885 -0.338694  0.938657
			-0.286635 -0.503922  0.814803
			-0.132075 -0.528805  0.838404
			-0.220720 -0.156371  0.962721
			-0.221308 -0.330346  0.917548
			-0.262580  0.040250  0.964070
			-0.300154  0.149202  0.942150
			-0.284382  0.289036  0.914104
			-0.089397  0.395174  0.914246
			-0.201723  0.487070  0.849747
			-0.218660  0.439417  0.871264
			-0.028641  0.381440  0.923950
			-0.043809  0.366814  0.929262
			-0.180996  0.554059  0.812563
			 0.729067 -0.418317 -0.541731
			 0.734453 -0.284334 -0.616225
			 0.707699 -0.307045 -0.636306
			 0.698340 -0.354080 -0.622052
			 0.664279 -0.378875 -0.644350
			 0.500014  0.491180 -0.713252
			 0.546495  0.582188 -0.601997
			 0.481307  0.658464 -0.578592
			 0.491244  0.570890 -0.657848
			 0.658441  0.562320 -0.500251
			 0.799404  0.213059 -0.561746
			 0.618027  0.527456 -0.582951
			 0.751951  0.346724 -0.560671
			 0.816125 -0.009668 -0.577795
			 0.537536  0.420522 -0.730900
			 0.643626  0.361295 -0.674693