<?xml version="1.0"?>
<VTKFile type="PolyData" version="0.1" byte_order="LittleEndian" compressor="vtkZLibDataCompressor">
	<PolyData>
		<Piece NumberOfPoints="1914" NumberOfVerts="0" NumberOfLines="0" NumberOfStrips="0" NumberOfPolys="3824">
		<PointData Normals="Normals">
		<DataArray type="Float32" Name="Normals" NumberOfComponents="3" format="ascii">
			-0.652886 -0.435904 -0.619457
			-0.612236 -0.554563 -0.563584
			-0.765230 -0.464743 -0.445464
			-0.735151 -0.357964 -0.575686
			-0.430989 -0.504289 -0.748293
			-0.553159 -0.404916 -0.728051
			-0.837839 -0.510742 -0.192791
			-0.274672 -0.584935 -0.763155
			-0.423502 -0.650064 -0.630922
			-0.693818 -0.599999 -0.398269
			-0.857171 -0.415186 -0.304760
			-0.849727 -0.472103 -0.234698
			-0.662103 -0.287032 -0.692266
			-0.872535 -0.339456 -0.351358
			-0.800378 -0.285091 -0.527369
			-0.301579 -0.520016 -0.799146
			-0.328434 -0.518667 -0.789377
			-0.584021 -0.312638 -0.749117
			-0.350905 -0.499925 -0.791796
			-0.891033 -0.449967  0.059920
			-0.806288 -0.548089 -0.222481
			-0.866807 -0.398740  0.299420
			-0.872367 -0.481698  0.083322
			-0.050213 -0.697721 -0.714607
			-0.111074 -0.625910 -0.771945
			-0.584274 -0.698386 -0.413377
			-0.236189 -0.777672 -0.582615
			-0.730600 -0.669098 -0.136129
			-0.798082 -0.601710 -0.031793
			-0.935845 -0.351600 -0.023901
			-0.640347 -0.200295 -0.741510
			-0.708920 -0.198153 -0.676881
			-0.911459 -0.260357 -0.318522
			-0.321704 -0.494006 -0.807753
			-0.245227 -0.600745 -0.760900
			-0.398898 -0.488549 -0.776016
			-0.430716 -0.481075 -0.763578
			-0.646081 -0.287735 -0.706957
			-0.885691 -0.354320  0.300013
			-0.789033 -0.362234  0.496199
			-0.839269 -0.438418  0.321586
			-0.807906 -0.349370  0.474583
			 0.223783 -0.742622 -0.631216
			 0.142086 -0.788262 -0.598710
			-0.013240 -0.841139 -0.540657
			-0.053609 -0.780843 -0.622423
			-0.587380 -0.801050 -0.115341
			-0.325595 -0.857818 -0.397664
			-0.795107 -0.583653  0.164784
			-0.910547 -0.350789  0.218750
			-0.740669 -0.160091 -0.652518
			-0.696038 -0.222910 -0.682526
			-0.829328 -0.200494 -0.521553
			-0.951461 -0.307743 -0.004158
			-0.954094 -0.238691 -0.180918
			-0.859264 -0.217402 -0.463036
			-0.540685 -0.603751 -0.585786
			-0.322700 -0.739777 -0.590419
			-0.588462 -0.562067 -0.581199
			-0.689253 -0.360392 -0.628528
			-0.750995 -0.176448 -0.636296
			-0.673897 -0.232031 -0.701444
			-0.799831 -0.422570  0.426268
			-0.726828 -0.419026  0.544186
			-0.790930 -0.380551  0.479177
			-0.851671 -0.346882  0.392847
			 0.313859 -0.858032 -0.406539
			 0.775237 -0.539986 -0.327755
			 0.954440 -0.225410 -0.195539
			 0.438460 -0.734377 -0.518116
			 0.024718 -0.901305 -0.432478
			-0.238935 -0.908948 -0.341647
			 0.235438 -0.874503 -0.424044
			 0.116731 -0.883845 -0.452981
			-0.125088 -0.802612 -0.583239
			-0.662076 -0.736891  0.136552
			-0.465477 -0.876581 -0.122215
			-0.763030 -0.548835  0.341418
			-0.917854 -0.300960  0.258780
			-0.730661 -0.267977 -0.627952
			-0.762199 -0.266997 -0.589716
			-0.761314 -0.226022 -0.607712
			-0.625572 -0.250098 -0.738993
			-0.878390 -0.186148 -0.440203
			-0.972047 -0.234786 -0.000647
			-0.955338 -0.195112 -0.221946
			-0.882424 -0.165449 -0.440404
			 0.685133 -0.259840 -0.680497
			 0.799451 -0.194551 -0.568355
			-0.659095 -0.552965 -0.509729
			-0.534468 -0.663023 -0.524161
			-0.334563 -0.755461 -0.563335
			-0.066160 -0.841519 -0.536161
			-0.752513 -0.238103 -0.614029
			-0.514392 -0.382842 -0.767355
			-0.604152 -0.188527 -0.774246
			-0.721253 -0.188605 -0.666499
			-0.599399 -0.546870 -0.584512
			-0.721827 -0.217858 -0.656889
			-0.656643 -0.219714 -0.721489
			-0.701196 -0.516213  0.491780
			-0.552548 -0.628960  0.546901
			-0.548369 -0.495302  0.673771
			-0.498913 -0.457436  0.736097
			-0.673157 -0.402287  0.620503
			-0.434310 -0.570501  0.697068
			-0.425981 -0.600791  0.676454
			-0.692852 -0.421992  0.584704
			-0.810327 -0.375155  0.450144
			-0.799643 -0.340641  0.494504
			-0.793566 -0.365127  0.486761
			-0.845971 -0.362257  0.391283
			-0.955815 -0.261628  0.134048
			-0.908188 -0.317098  0.273211
			 0.024424 -0.981640 -0.189171
			 0.498086 -0.776930 -0.385084
			 0.591895 -0.761180 -0.265077
			 0.513124 -0.857081 -0.045998
			 0.300629 -0.953186 -0.032536
			 0.881529 -0.388958 -0.267616
			 0.496197 -0.777829 -0.385707
			 0.320322 -0.811949 -0.487989
			-0.263224 -0.933333 -0.244137
			 0.441153 -0.846271 -0.298681
			 0.308619 -0.901412 -0.303663
			-0.413836 -0.909554  0.038094
			-0.659233 -0.684112  0.312093
			-0.895823 -0.238360 -0.375081
			 0.988198 -0.045192 -0.146366
			 0.797940 -0.313670 -0.514687
			-0.659668 -0.255066 -0.706951
			-0.762342 -0.248603 -0.597521
			-0.855160 -0.268743 -0.443259
			-0.528839 -0.136207 -0.837722
			-0.592691 -0.193368 -0.781873
			-0.889260 -0.180536 -0.420266
			-0.945046 -0.194251 -0.262972
			-0.984219 -0.168757 -0.053230
			-0.982841 -0.182023  0.029852
			-0.835349 -0.258244 -0.485287
			-0.426148 -0.570657 -0.701961
			-0.098896 -0.765051 -0.636330
			-0.177649 -0.675990 -0.715177
			-0.368829 -0.647852 -0.666523
			 0.103506 -0.873169 -0.476300
			 0.016872 -0.777752 -0.628344
			-0.702245 -0.180167 -0.688761
			-0.354769 -0.203334 -0.912576
			-0.295886 -0.324423 -0.898444
			-0.695552 -0.124065 -0.707683
			-0.456288 -0.122217 -0.881399
			-0.637601 -0.129835 -0.759347
			-0.478155 -0.794778  0.373759
			-0.386811 -0.713264  0.584494
			-0.167966 -0.870996  0.461686
			-0.279138 -0.807652  0.519404
			-0.418073 -0.743554  0.521865
			-0.443245 -0.364388  0.818996
			-0.187257 -0.446901  0.874765
			-0.230158 -0.387426  0.892708
			-0.282550 -0.536427  0.795243
			-0.721198 -0.373148  0.583639
			-0.416391 -0.347072  0.840333
			-0.556440 -0.398679  0.728992
			-0.173257 -0.742687  0.646836
			-0.227209 -0.747050  0.624734
			-0.078740 -0.689042  0.720432
			-0.748055 -0.311214  0.586140
			 0.756391 -0.332337  0.563405
			-0.032090 -0.543647  0.838700
			-0.783212 -0.328035  0.528177
			-0.812786 -0.348315  0.466964
			-0.782202 -0.265643  0.563554
			-0.673222 -0.285533  0.682087
			-0.819791 -0.339014  0.461533
			-0.953321 -0.196412  0.229352
			-0.893669 -0.287679  0.344378
			-0.058149 -0.991550  0.115966
			 0.708470 -0.657932 -0.255335
			 0.748302 -0.658891 -0.076857
			 0.303540 -0.904729  0.298880
			 0.493383 -0.857325  0.146853
			 0.658535 -0.738558  0.144443
			 0.127500 -0.962722  0.238560
			 0.698849 -0.699401 -0.149827
			 0.573918 -0.813503 -0.093979
			 0.428668 -0.817585 -0.384445
			 0.446288 -0.850301 -0.278952
			 0.267595 -0.781691 -0.563340
			 0.509833 -0.860075 -0.018494
			-0.950162 -0.275289 -0.146313
			-0.631423 -0.253224 -0.732928
			-0.563481 -0.218580 -0.796689
			-0.839259 -0.290966 -0.459329
			-0.435339 -0.110838 -0.893418
			-0.432983 -0.018256 -0.901217
			-0.244057  0.057761 -0.968039
			-0.981272 -0.156021  0.112976
			-0.969572 -0.215875  0.115448
			-0.197371 -0.510303 -0.837040
			 0.039144 -0.612065 -0.789838
			-0.013089 -0.454059 -0.890876
			 0.159064 -0.728187 -0.666664
			-0.047161 -0.174525 -0.983523
			-0.211447 -0.112435 -0.970901
			-0.081515 -0.307983 -0.947893
			-0.122422 -0.107396 -0.986650
			-0.397433 -0.084975 -0.913689
			-0.527789 -0.070348 -0.846457
			-0.217752 -0.896068  0.386842
			-0.074376 -0.875795  0.476919
			-0.014898 -0.875316  0.483322
			 0.128693 -0.906503  0.402108
			-0.058649 -0.871509  0.486860
			-0.175245 -0.284351  0.942568
			 0.118469 -0.301660  0.946027
			 0.126943 -0.454068  0.881878
			 0.010662 -0.536677  0.843720
			-0.635462 -0.350597  0.687947
			-0.288886 -0.246581  0.925064
			-0.153554 -0.205743  0.966484
			 0.081154 -0.854598  0.512911
			 0.136410 -0.807991  0.573186
			 0.274353 -0.690376  0.669412
			 0.761270 -0.319412  0.564308
			-0.735450 -0.290932  0.611941
			-0.704296 -0.272998  0.655316
			-0.806737 -0.235497  0.541956
			-0.739465 -0.100997  0.665576
			-0.691884 -0.108937  0.713743
			-0.814262 -0.244980  0.526272
			-0.869465 -0.151682  0.470131
			-0.887661 -0.117450  0.445268
			-0.945417 -0.177718  0.273136
			 0.884380 -0.458166 -0.089200
			 0.887432 -0.451714  0.091759
			 0.786410 -0.590481  0.181361
			 0.286204 -0.890151  0.354567
			 0.519713 -0.798412  0.304034
			 0.757574 -0.544880  0.359428
			 0.768892 -0.638600 -0.031530
			 0.665332 -0.559976 -0.493720
			 0.460542 -0.646022 -0.608734
			 0.658010 -0.735856 -0.159806
			 0.463890 -0.879507 -0.106178
			 0.277679 -0.537601 -0.796166
			 0.348099 -0.540263 -0.766122
			 0.531616 -0.832785  0.154446
			 0.661088 -0.687419  0.300695
			-0.902602 -0.290353 -0.317813
			-0.957681 -0.282021 -0.057551
			-0.905817 -0.265204 -0.330397
			-0.935696 -0.283949  0.209393
			-0.949832 -0.299710  0.089403
			-0.802745 -0.268363 -0.532524
			-0.754748 -0.266925 -0.599255
			-0.635749 -0.247611 -0.731103
			-0.471239 -0.170517 -0.865366
			-0.421867 -0.178653 -0.888882
			-0.476251 -0.208908 -0.854132
			-0.192335 -0.045221 -0.980287
			-0.407866  0.009043 -0.912997
			-0.165025  0.057832 -0.984592
			 0.063983  0.144053 -0.987499
			 0.094328  0.103839 -0.990111
			-0.864589 -0.205367  0.458595
			 0.197233 -0.530275 -0.824565
			 0.163853 -0.355671 -0.920136
			 0.073446 -0.239005 -0.968237
			 0.293835 -0.073934 -0.952993
			 0.184619 -0.073251 -0.980077
			-0.025609  0.022985 -0.999408
			 0.221003  0.012327 -0.975195
			-0.259305 -0.114360 -0.959001
			-0.208514 -0.002171 -0.978017
			 0.312731 -0.865419  0.391471
			 0.047430 -0.139208  0.989127
			 0.482768 -0.243915  0.841095
			 0.308383 -0.144219  0.940267
			 0.403777 -0.390620  0.827272
			 0.413932 -0.501130  0.759954
			-0.543457 -0.207909  0.813282
			 0.040883 -0.058371  0.997458
			-0.168484 -0.052119  0.984326
			 0.351859 -0.773082  0.527768
			 0.591889 -0.588428  0.550836
			-0.693653 -0.090210  0.714638
			-0.700613 -0.046465  0.712027
			-0.800763 -0.113158  0.588196
			-0.550886  0.097561  0.828859
			-0.609486  0.072554  0.789470
			-0.622812  0.111097  0.774443
			-0.551022  0.066367  0.831848
			-0.731522  0.016050  0.681629
			-0.831019 -0.101001  0.546998
			 0.927199 -0.371713 -0.046155
			 0.994434 -0.104857 -0.010297
			 0.988449 -0.151547 -0.001181
			 0.957454 -0.266275  0.111259
			 0.900191 -0.364084  0.238954
			 0.837866 -0.481017  0.258076
			 0.557620 -0.702666  0.441951
			 0.715653 -0.403307  0.570250
			 0.835812 -0.375901  0.400147
			 0.854820 -0.493532  0.160342
			 0.906960 -0.421179  0.005609
			 0.771435 -0.442546 -0.457211
			 0.744355 -0.610768 -0.269997
			 0.573608 -0.396568 -0.716735
			 0.688350 -0.333457 -0.644190
			 0.669983 -0.268143 -0.692259
			 0.672709 -0.705220  0.223890
			 0.588737 -0.800735  0.110511
			 0.785763 -0.595657  0.166641
			 0.347966 -0.274516 -0.896415
			 0.415235 -0.367160 -0.832330
			 0.673866 -0.565279  0.475777
			 0.664210 -0.557364  0.498167
			 0.770595 -0.528920  0.355565
			-0.937076 -0.265206 -0.227057
			-0.950569 -0.256896  0.174423
			-0.966007 -0.255505 -0.039330
			-0.875196 -0.263829 -0.405495
			-0.728972 -0.244381 -0.639436
			-0.826291 -0.274883  0.491612
			-0.916046 -0.277257  0.289808
			-0.546155 -0.173975 -0.819419
			-0.293644 -0.090006 -0.951668
			-0.340843 -0.144064 -0.929017
			-0.408682 -0.120125 -0.904737
			-0.330407 -0.087087 -0.939812
			-0.062263 -0.008828 -0.998021
			-0.140950  0.033574 -0.989447
			-0.019754  0.011334 -0.999741
			 0.118396  0.091735 -0.988720
			-0.160782 -0.051848 -0.985627
			 0.160775  0.086185 -0.983221
			 0.190984  0.109629 -0.975452
			 0.254894  0.148273 -0.955533
			 0.307630  0.179520 -0.934418
			 0.223614  0.146415 -0.963618
			 0.360203  0.163676 -0.918403
			-0.674091 -0.031578  0.737973
			-0.619968 -0.123075  0.774914
			 0.545264 -0.149652 -0.824798
			 0.409496  0.049766 -0.910953
			 0.504216 -0.039020 -0.862696
			 0.425583  0.083784 -0.901032
			 0.382149  0.075765 -0.920989
			 0.341729 -0.024895  0.939469
			 0.201384  0.010847  0.979452
			 0.609791 -0.100343  0.786185
			 0.641791 -0.297021  0.707025
			-0.480108  0.053195  0.875595
			 0.127563  0.065232  0.989683
			 0.255637  0.146620  0.955590
			-0.155935  0.150920  0.976170
			 0.104023  0.103303  0.989196
			-0.457050  0.150443  0.876626
			-0.486392  0.225264  0.844203
			-0.340728  0.334318  0.878713
			-0.349418  0.238087  0.906213
			-0.433755  0.303519  0.848371
			-0.335266  0.282449  0.898788
			-0.563017  0.041272  0.825414
			 0.980092 -0.197309  0.022111
			 0.940892 -0.305595  0.146062
			 0.938965 -0.231834  0.254161
			 0.762604 -0.330353  0.556149
			 0.896383 -0.194293  0.398431
			 0.780644 -0.217554  0.585889
			 0.902361 -0.416315  0.111473
			 0.796738 -0.499390  0.340322
			 0.871884 -0.483732 -0.076300
			 0.773419 -0.305033 -0.555677
			 0.904478 -0.396330 -0.157613
			 0.611457 -0.242677 -0.753145
			 0.583161 -0.186113 -0.790750
			 0.703074 -0.560219  0.437997
			 0.817253 -0.548368  0.177175
			 0.679606 -0.410173  0.608189
			-0.946138 -0.242399 -0.214630
			-0.870179 -0.243695 -0.428253
			-0.908462 -0.248199 -0.336296
			-0.941538 -0.234782  0.241625
			-0.888977 -0.253384  0.381465
			-0.827510 -0.283128  0.484835
			-0.968075 -0.238874  0.075960
			-0.962890 -0.242684 -0.118095
			-0.791920 -0.223214 -0.568365
			-0.576063 -0.188358 -0.795407
			-0.637315 -0.185263 -0.748002
			-0.684100 -0.244591  0.687156
			-0.773603 -0.286018  0.565449
			-0.397003 -0.098667 -0.912499
			-0.516502 -0.135121 -0.845558
			-0.269645 -0.046897 -0.961817
			-0.276111 -0.043522 -0.960140
			 0.132939  0.101922 -0.985870
			-0.084601 -0.023569 -0.996136
			 0.068121  0.037928 -0.996956
			 0.286238  0.054668 -0.956598
			 0.561247  0.119029 -0.819045
			-0.131158 -0.010841 -0.991302
			 0.380118  0.120388 -0.917070
			 0.485077  0.173790 -0.857028
			 0.509205  0.200598 -0.836941
			 0.573550  0.158309 -0.803728
			-0.551426 -0.092323  0.829099
			-0.290013  0.064521  0.954845
			-0.520502 -0.140716  0.842186
			-0.430290  0.061337  0.900604
			 0.534573  0.066471 -0.842504
			 0.432107  0.127628 -0.892745
			 0.486811 -0.052967 -0.871900
			 0.390692  0.066995 -0.918080
			 0.633310  0.047828  0.772419
			 0.468514  0.126423  0.874364
			 0.830596 -0.024647  0.556330
			-0.272149  0.245631  0.930377
			 0.276819  0.270428  0.922085
			 0.404911  0.341182  0.848317
			 0.483872  0.240427  0.841465
			 0.148354  0.254548  0.955613
			-0.083025  0.262510  0.961351
			-0.105800  0.305441  0.946315
			-0.250002  0.434611  0.865224
			 0.033402  0.500307  0.865204
			-0.180244  0.424885  0.887122
			-0.073961  0.511524  0.856080
			-0.019780  0.367360  0.929868
			 0.943563 -0.192939  0.269191
			 0.857366 -0.348710  0.378583
			 0.964987 -0.063436  0.254510
			 0.951311 -0.061188  0.302097
			 0.881301 -0.260295 -0.394406
			 0.948668 -0.102705 -0.299134
			 0.659988 -0.233908 -0.713935
			 0.827148 -0.177026 -0.533374
			 0.944485 -0.322518  0.062687
			 0.845341 -0.446726  0.292976
			 0.961623 -0.207003 -0.180087
			 0.834258 -0.531458  0.146852
			 0.471319 -0.056049 -0.880180
			 0.736639 -0.574684  0.356514
			 0.731662 -0.395656  0.555092
			 0.657160 -0.309772  0.687155
			 0.661102 -0.220506  0.717162
			-0.927167 -0.240312 -0.287421
			-0.877835 -0.229056 -0.420641
			-0.862090 -0.247535  0.442184
			-0.958040 -0.226985  0.175034
			-0.931866 -0.240943  0.271242
			-0.735849 -0.296839  0.608616
			-0.721159 -0.288203  0.629975
			-0.967661 -0.244575  0.061774
			-0.947145 -0.267977 -0.176365
			-0.930874 -0.251063 -0.265407
			-0.962878 -0.269898  0.004705
			-0.732547 -0.191003 -0.653371
			-0.841971 -0.207701 -0.497941
			-0.607295 -0.148319 -0.780509
			 0.449941 -0.238062  0.860744
			-0.583699 -0.319523  0.746459
			-0.740565 -0.282834  0.609564
			-0.402422 -0.073073 -0.912533
			-0.293628 -0.033837 -0.955321
			-0.290865 -0.036620 -0.956063
			-0.190535 -0.019817 -0.981480
			 0.195182  0.101633 -0.975487
			 0.029486  0.012587 -0.999486
			 0.144796  0.010786 -0.989403
			 0.566260  0.034747 -0.823494
			 0.214069  0.012399 -0.976740
			 0.704238  0.222027 -0.674354
			 0.796636  0.162449 -0.582221
			-0.185025 -0.011224 -0.982670
			-0.110291  0.015979 -0.993771
			 0.565326  0.287076 -0.773301
			 0.666062  0.293602 -0.685681
			-0.271067 -0.004404  0.962550
			 0.151512  0.249795  0.956372
			-0.055067  0.121428  0.991071
			-0.274229 -0.178251  0.945000
			-0.400858 -0.111123  0.909376
			 0.523628  0.165516 -0.835714
			 0.359897  0.118899 -0.925385
			 0.482513  0.232583 -0.844445
			 0.502342  0.176048 -0.846558
			 0.809974  0.097995  0.578220
			 0.687102  0.149952  0.710919
			 0.654530  0.264912  0.708105
			 0.922446  0.109576  0.370253
			 0.374795  0.469707  0.799315
			 0.405725  0.507668  0.760040
			 0.265431  0.428974  0.863439
			 0.460338  0.530787  0.711585
			 0.561323  0.418771  0.713826
			 0.212852  0.452794  0.865836
			 0.253316  0.372100  0.892957
			 0.182058  0.603075  0.776631
			 0.451410  0.549950  0.702697
			 0.080384  0.491896  0.866935
			 0.280729  0.572443  0.770389
			 0.910672 -0.148296  0.385597
			 0.719092 -0.187469  0.669150
			 0.922587  0.077697  0.377884
			 0.906112 -0.113065 -0.407647
			 0.971852 -0.057745 -0.228404
			 0.980655 -0.013141 -0.195304
			 0.907500  0.042878 -0.417858
			 0.576497 -0.078157 -0.813353
			 0.710444 -0.093529 -0.697511
			 0.886516 -0.281099  0.367522
			 0.965937 -0.184353  0.181604
			 0.997084 -0.071519 -0.026626
			 0.777301 -0.278940  0.563910
			 0.970205  0.019014 -0.241540
			 0.931836  0.045518 -0.360013
			 0.726723 -0.111361  0.677844
			 0.785695  0.011280  0.618512
			 0.628910 -0.034834  0.776697
			 0.592664 -0.141823  0.792865
			-0.787403 -0.213446 -0.578305
			-0.896698 -0.254678 -0.362038
			-0.745875 -0.282178  0.603363
			-0.809208 -0.224769  0.542827
			-0.758539 -0.268761  0.593622
			-0.884111 -0.241458  0.400057
			-0.928015 -0.257858  0.268881
			-0.798351 -0.211711  0.563749
			-0.534901 -0.277612  0.798006
			-0.528442 -0.269339  0.805112
			-0.466003 -0.320055  0.824867
			-0.915781 -0.381210 -0.126587
			-0.859127 -0.232726 -0.455785
			-0.868813 -0.244679 -0.430460
			-0.947951 -0.236504 -0.213202
			-0.903520 -0.240159 -0.354929
			-0.864852 -0.234218 -0.444042
			-0.946663 -0.319114  0.044671
			-0.420498 -0.093024 -0.902512
			-0.579246 -0.165679 -0.798138
			 0.753838 -0.189817  0.629044
			 0.952574 -0.120873  0.279271
			-0.463312 -0.277049  0.841776
			-0.041560  0.010105 -0.999085
			-0.016008  0.018826 -0.999695
			 0.057963  0.028133 -0.997922
			-0.446112 -0.120945 -0.886767
			-0.246671 -0.065343 -0.966894
			-0.101836 -0.030256 -0.994341
			 0.286071  0.013643 -0.958111
			 0.881816  0.069880 -0.466387
			 0.495271  0.040533 -0.867792
			 0.689252  0.020878 -0.724221
			 0.880872  0.272702 -0.386909
			 0.927785  0.185959 -0.323471
			 0.708119  0.430723 -0.559504
			 0.630085  0.590813 -0.503917
			 0.560384  0.426794 -0.709800
			 0.875914  0.419098 -0.239022
			-0.109938  0.007170  0.993913
			 0.151983  0.103684  0.982930
			 0.198052  0.196488  0.960296
			 0.395719  0.226866  0.889909
			 0.469064  0.320023  0.823143
			 0.182304  0.187567  0.965186
			-0.160860 -0.098254  0.982074
			-0.409924 -0.215172  0.886376
			 0.617254  0.319741 -0.718862
			 0.478653  0.070011 -0.875208
			 0.529217  0.195618 -0.825629
			 0.803253  0.198066 -0.561743
			 0.751611  0.246850 -0.611675
			 0.751762  0.246287 -0.611717
			 0.772812  0.220488  0.595102
			 0.859164  0.199872  0.471050
			 0.656178  0.428231  0.621329
			 0.791006  0.296423  0.535204
			 0.806594  0.292868  0.513454
			 0.447393  0.601655  0.661703
			 0.462272  0.632492  0.621497
			 0.468850  0.631196  0.617876
			 0.478084  0.666026  0.572578
			 0.556492  0.558952  0.614728
			 0.485177  0.408940  0.772898
			 0.509418  0.663274  0.548235
			 0.567208  0.423678  0.706238
			 0.587636  0.392760  0.707407
			 0.830159 -0.061328  0.554143
			 0.665143 -0.036495  0.745823
			 0.822050  0.154850  0.547956
			 0.849410  0.055404 -0.524818
			 0.878249  0.059926 -0.474434
			 0.612023  0.064654 -0.788193
			 0.884374 -0.097789  0.456421
			 0.980226 -0.025082  0.196283
			 0.988559  0.139238 -0.058003
			 0.930611  0.187585 -0.314284
			 0.674199  0.188461  0.714100
			 0.958517  0.144036  0.245963
			 0.870229  0.268204  0.413241
			 0.579557  0.077304  0.811257
			-0.813533 -0.226321 -0.535671
			-0.658086 -0.192407 -0.727944
			-0.585929 -0.260178  0.767460
			-0.581017 -0.243032  0.776759
			-0.619914 -0.211004  0.755767
			-0.825750 -0.222950  0.518102
			-0.767811 -0.205676  0.606765
			-0.953622 -0.246889  0.172194
			-0.812806 -0.297135  0.501056
			-0.630815 -0.178174  0.755200
			-0.645854 -0.175378  0.743044
			-0.189185 -0.235113  0.953379
			-0.276373 -0.227119  0.933828
			-0.366328 -0.190142  0.910851
			-0.232376 -0.218043  0.947870
			-0.933782 -0.310568 -0.177757
			-0.911024 -0.409605 -0.047529
			-0.843719 -0.236770 -0.481744
			-0.790277 -0.222114 -0.571075
			-0.944991 -0.261333 -0.196714
			-0.876497 -0.253165 -0.409464
			-0.925554 -0.238640 -0.293940
			-0.970750 -0.237696  0.033849
			 0.163629  0.061601 -0.984597
			 0.150737  0.053522 -0.987124
			-0.006788 -0.003162 -0.999972
			 0.348291  0.040276 -0.936521
			-0.616914 -0.161406 -0.770302
			-0.347895 -0.085236 -0.933651
			-0.548197 -0.131296 -0.825979
			-0.150210 -0.047725 -0.987502
			-0.058237 -0.027316 -0.997929
			 0.449912  0.033059 -0.892461
			 0.990149  0.139601 -0.010762
			 0.677480  0.056442 -0.733372
			 0.835120  0.056912 -0.547116
			 0.978713  0.055625 -0.197552
			 0.925408  0.369088 -0.085986
			 0.949614  0.301995 -0.083865
			 0.970733  0.238273 -0.030075
			 0.800942  0.524654 -0.288496
			 0.798327  0.595586 -0.089170
			 0.593709  0.679318 -0.431319
			 0.626371  0.757810 -0.182713
			 0.623176  0.526276 -0.578520
			 0.916114  0.373241  0.146376
			 0.881992  0.409087  0.233963
			 0.859477  0.503891  0.085981
			 0.232213  0.056601  0.971017
			 0.426996  0.179098  0.886340
			 0.435987  0.099616  0.894423
			 0.552826  0.293097  0.780050
			 0.268688  0.007773  0.963196
			-0.002563 -0.080846  0.996723
			 0.755340  0.438866 -0.486681
			 0.689624  0.581906 -0.431050
			 0.891118  0.285165 -0.352973
			 0.872044  0.225150 -0.434565
			 0.892311  0.222476 -0.392791
			 0.847838  0.347117 -0.400850
			 0.563551  0.612959  0.553797
			 0.692068  0.474889  0.543620
			 0.516880  0.645833  0.561902
			 0.706700  0.312706  0.634658
			 0.622935  0.392988  0.676397
			 0.648960  0.483171  0.587705
			 0.468215  0.659636  0.587924
			 0.413220  0.714911  0.564050
			 0.597062  0.505257  0.623083
			 0.495802  0.628215  0.599605
			 0.636446  0.313053  0.704936
			 0.640833  0.404725  0.652327
			 0.600831  0.275063  0.750561
			 0.603418  0.199269  0.772126
			 0.946245  0.310919 -0.089165
			 0.558475  0.200708  0.804874
			 0.628981  0.327033  0.705289
			 0.802895  0.378374  0.460643
			 0.943169  0.293168  0.156476
			 0.925981  0.370109  0.074694
			-0.737034 -0.186280 -0.649677
			-0.272530 -0.206678  0.939687
			-0.438790 -0.192324  0.877767
			-0.770117 -0.257904  0.583442
			-0.668106 -0.196771  0.717576
			-0.975576 -0.219317 -0.012310
			-0.956149 -0.292881 -0.000266
			-0.932552 -0.289680  0.215481
			 0.765468 -0.283138  0.577833
			-0.874090 -0.277861  0.398447
			 0.301981 -0.469915  0.829450
			-0.451174 -0.153185  0.879191
			-0.462560 -0.149628  0.873870
			 0.038944 -0.186683  0.981648
			 0.077380 -0.149436  0.985739
			-0.000686 -0.162544  0.986701
			-0.968282 -0.238788 -0.073558
			-0.550378 -0.155667 -0.820276
			-0.636386 -0.193840 -0.746618
			-0.705851 -0.186745 -0.683301
			-0.843436 -0.237823 -0.481722
			-0.959965 -0.274489 -0.055884
			-0.917140 -0.260440 -0.301705
			-0.955853 -0.245955 -0.160780
			 0.382435  0.119694 -0.916197
			 0.363683  0.087333 -0.927420
			-0.014316 -0.013014 -0.999813
			 0.110049  0.014606 -0.993819
			 0.282415  0.094928 -0.954584
			 0.621735  0.044919 -0.781939
			 0.559855  0.087248 -0.823984
			-0.346206 -0.098310 -0.932993
			-0.048935 -0.024150 -0.998510
			-0.118299 -0.052089 -0.991611
			 0.975268  0.190173  0.112632
			 0.953602  0.135729  0.268739
			 0.990571  0.057099  0.124538
			 0.753148  0.059115 -0.655189
			 0.947437  0.042416 -0.317119
			 0.926315  0.063952 -0.371282
			 0.774966  0.056115 -0.629507
			 0.997423  0.053018 -0.048341
			 0.927983  0.355705  0.111005
			 0.938793  0.270338  0.213507
			 0.693367  0.714478  0.093614
			 0.799901  0.592416  0.095925
			 0.617336  0.779136 -0.108828
			 0.609974  0.666315 -0.428901
			 0.584019  0.776480  0.236646
			 0.881282  0.341950  0.326209
			 0.856351  0.330156  0.397064
			 0.895866  0.348069  0.276174
			 0.777679  0.456867  0.431843
			 0.784000  0.303434  0.541546
			 0.707604  0.630440  0.319126
			 0.441145  0.093916  0.892508
			 0.514921  0.114978  0.849492
			 0.531104  0.174861  0.829067
			 0.507661  0.150627  0.848287
			 0.831372  0.106201  0.545475
			 0.365599  0.061387  0.928746
			 0.345869 -0.051807  0.936852
			 0.839962  0.511243 -0.181920
			 0.759772  0.608354 -0.229461
			 0.676485  0.682639 -0.276355
			 0.732347  0.675118  0.088786
			 0.947083  0.313020 -0.071073
			 0.929882  0.339773 -0.140975
			 0.584803  0.508444  0.632052
			 0.848560  0.215027  0.483436
			 0.675271  0.418908  0.607062
			 0.366235  0.705557  0.606680
			 0.481843  0.615158  0.624026
			 0.623237  0.487382  0.611584
			 0.477298  0.646578  0.595082
			 0.704110  0.244704  0.666595
			 0.700554  0.223061  0.677840
			 0.601316  0.217060  0.768963
			 0.596587  0.506892  0.622210
			 0.630286  0.370763  0.682110
			 0.547998  0.311048  0.776497
			 0.482032  0.347655  0.804227
			 0.530044  0.390975  0.752457
			 0.642321  0.472101  0.603775
			 0.485352  0.470642  0.736838
			 0.561298  0.478015  0.675608
			 0.902348  0.383842  0.196043
			 0.750859  0.488548  0.444444
			 0.257399 -0.132526  0.957174
			-0.148329 -0.174245  0.973467
			-0.182919 -0.302002  0.935593
			-0.769095 -0.277201  0.575892
			-0.449973 -0.178970  0.874925
			-0.941416 -0.279382  0.188898
			-0.825511 -0.295995  0.480539
			 0.783117 -0.326500  0.529269
			-0.758439 -0.308127  0.574307
			-0.211106 -0.110965  0.971144
			-0.128366 -0.100649  0.986606
			 0.267466 -0.157395  0.950626
			-0.555411 -0.147954 -0.818308
			-0.326819 -0.114848 -0.938083
			-0.660420 -0.193379 -0.725569
			-0.924062 -0.241693 -0.296133
			-0.876488 -0.243598 -0.415244
			-0.968489 -0.248256  0.019958
			-0.939782 -0.280005 -0.195974
			 0.519703  0.150055 -0.841066
			 0.384000  0.128393 -0.914363
			 0.618205  0.144503 -0.772620
			 0.333663  0.059267 -0.940828
			 0.026072  0.006140 -0.999641
			 0.214344  0.026867 -0.976389
			 0.752080  0.092992 -0.652478
			-0.161544 -0.074844 -0.984023
			 0.040650 -0.018428 -0.999004
			-0.052595 -0.045810 -0.997565
			 0.944035  0.195803  0.265442
			 0.865947  0.031178  0.499163
			 0.917388  0.122335  0.378725
			 0.982540  0.042769  0.181069
			 0.999018  0.044024  0.005010
			 0.893896  0.089511 -0.439246
			 0.990494  0.080213 -0.111746
			 0.879468  0.263279  0.396510
			 0.600915  0.667503  0.439705
			 0.524344  0.643039  0.558180
			 0.770814  0.191608  0.607563
			 0.653609  0.503046  0.565456
			 0.596869  0.390484  0.700906
			 0.683414  0.245497  0.687515
			 0.737710  0.196932  0.645756
			 0.584149  0.080445  0.807650
			 0.672448  0.126490  0.729255
			 0.453530  0.053079  0.889659
			 0.482614  0.039218  0.874954
			 0.633282  0.142444  0.760700
			 0.401730  0.022316  0.915486
			 0.653974  0.104970  0.749200
			 0.668942  0.141182  0.729784
			 0.510458  0.153784  0.846040
			 0.909413  0.072681  0.409495
			 0.968110  0.042559  0.246884
			 0.540571 -0.046036  0.840038
			 0.491571 -0.064796  0.868423
			 0.751595  0.654676  0.080652
			 0.859902  0.505571  0.070468
			 0.568058  0.735835  0.368589
			 0.719734  0.595011  0.357693
			 0.866776  0.445992  0.223137
			 0.456825  0.677320  0.576670
			 0.380169  0.643501  0.664363
			 0.970714  0.147554  0.189587
			 0.890789  0.202652  0.406726
			 0.488262  0.542857  0.683305
			 0.434303  0.664199  0.608457
			 0.618126  0.241468  0.748073
			 0.696122  0.193330  0.691403
			 0.708936  0.209711  0.673373
			 0.653524  0.182384  0.734603
			 0.440576  0.614473  0.654459
			 0.528209  0.521120  0.670395
			 0.472149  0.457087  0.753755
			 0.496372  0.382842  0.779132
			 0.306031  0.480253  0.822011
			 0.276388  0.500086  0.820685
			 0.507099  0.644366  0.572401
			 0.436884  0.606335  0.664448
			 0.390875  0.617757  0.682344
			 0.300266  0.578546  0.758370
			 0.643017  0.608572  0.464940
			 0.401191 -0.092583  0.911303
			 0.073124 -0.113025  0.990898
			 0.570198 -0.114048  0.813553
			-0.631329 -0.286102  0.720811
			-0.545675 -0.199461  0.813913
			-0.352610 -0.274305  0.894664
			 0.745962 -0.246278  0.618779
			 0.957826 -0.122892  0.259744
			-0.206610 -0.154803  0.966100
			-0.310462 -0.178152  0.933743
			-0.935528 -0.267957  0.230189
			-0.859423 -0.266978  0.436021
			-0.817951 -0.303369  0.488799
			 0.136948 -0.067655  0.988265
			 0.195793 -0.056406  0.979022
			 0.039947 -0.096895  0.994493