<?xml version="1.0"?>
<VTKFile type="PolyData" version="0.1" byte_order="LittleEndian" compressor="vtkZLibDataCompressor">
	<PolyData>
		<Piece NumberOfPoints="2662" NumberOfVerts="0" NumberOfLines="0" NumberOfStrips="0" NumberOfPolys="5320">
		<PointData Normals="Normals">
		<DataArray type="Float32" Name="Normals" NumberOfComponents="3" format="ascii">
			-0.488256 -0.371472  0.789693
			-0.627360 -0.163231  0.761429
			-0.619533 -0.433068  0.654699
			-0.443621 -0.653111  0.613715
			-0.513691 -0.197586  0.834914
			-0.302988 -0.447446  0.841422
			-0.345483 -0.578017  0.739282
			-0.715757 -0.349414  0.604650
			-0.696884 -0.255544  0.670112
			-0.615829 -0.001744  0.787878
			-0.577183 -0.019724  0.816377
			-0.550328 -0.746930  0.373142
			-0.671972 -0.533223  0.513933
			-0.162724 -0.818205  0.551418
			-0.386385 -0.824427  0.413554
			-0.401846 -0.296279  0.866452
			-0.590575 -0.062474  0.804561
			-0.225508 -0.627679  0.745094
			-0.010578 -0.696718  0.717267
			-0.099176 -0.497943  0.861520
			-0.730316 -0.474235  0.491670
			-0.716166 -0.163910  0.678410
			-0.744585 -0.434728  0.506562
			-0.757883 -0.260215  0.598248
			-0.780372 -0.419755  0.463493
			-0.775866 -0.057213  0.628298
			-0.610831 -0.007051  0.791730
			-0.734944  0.024871  0.677672
			-0.584966  0.035683  0.810272
			-0.278749 -0.932779  0.228521
			-0.445629 -0.889606  0.100076
			-0.615292 -0.708842  0.344904
			 0.083113 -0.982303  0.167846
			 0.139692 -0.893985  0.425765
			-0.264733 -0.509979  0.818436
			-0.536584 -0.218990  0.814936
			-0.670157 -0.044113  0.740908
			 0.269798 -0.843075  0.465224
			 0.106129 -0.703651  0.702575
			-0.704102 -0.655182  0.273820
			-0.869003 -0.264143  0.418405
			-0.822655 -0.472014  0.316926
			-0.761129 -0.624224  0.176143
			-0.865788 -0.151797  0.476832
			-0.754122 -0.056379  0.654310
			-0.624943 -0.005165  0.780653
			-0.736095 -0.139470  0.662354
			-0.649932 -0.200496  0.733069
			-0.587979 -0.168829  0.791061
			-0.135854 -0.990725  0.002869
			-0.598135 -0.801268 -0.014286
			-0.271207 -0.949477 -0.157922
			 0.052458 -0.997534 -0.046617
			 0.211692 -0.971889 -0.103044
			 0.287797 -0.956577  0.046190
			 0.400090 -0.901522  0.164882
			-0.051959 -0.666246  0.743920
			-0.207851 -0.585969  0.783223
			-0.538293 -0.329338  0.775743
			-0.406302 -0.478033  0.778719
			-0.691727 -0.113517  0.713182
			 0.428656 -0.870118  0.243204
			 0.400698 -0.819246  0.410216
			 0.293864 -0.714142  0.635331
			-0.842973 -0.508339  0.176033
			-0.916269 -0.292662  0.273497
			-0.860696 -0.233799  0.452261
			-0.661233 -0.123178  0.739999
			-0.717959 -0.034955  0.695207
			-0.879801 -0.225383  0.418512
			-0.806080 -0.198454  0.557540
			-0.613554 -0.240456  0.752152
			-0.616627 -0.232422  0.752164
			-0.735581 -0.208524  0.644545
			-0.624567 -0.230278  0.746250
			-0.005403 -0.985998 -0.166672
			-0.401263 -0.895733 -0.191442
			-0.540099 -0.817859 -0.198496
			-0.717016 -0.696662  0.023435
			-0.267931 -0.919661 -0.287118
			-0.078013 -0.954032 -0.289374
			 0.488542 -0.871096 -0.050176
			 0.285880 -0.948846 -0.134027
			 0.091735 -0.977128 -0.191851
			 0.495899 -0.867869 -0.029791
			 0.530520 -0.847288 -0.025535
			 0.658034 -0.747255  0.092746
			 0.143475 -0.593232  0.792143
			-0.157565 -0.504189  0.849097
			-0.393936 -0.454743  0.798764
			-0.622053 -0.229380  0.748622
			-0.730617 -0.089210  0.676935
			 0.600236 -0.692565  0.400087
			 0.506337 -0.611838  0.607681
			-0.838476 -0.526445  0.140764
			-0.881237 -0.336788  0.331655
			-0.915387 -0.282689  0.286624
			-0.783340 -0.127454  0.608386
			-0.647235 -0.228027  0.727386
			-0.716613 -0.088281  0.691861
			-0.701027 -0.048740  0.711467
			-0.962040 -0.184524  0.201073
			-0.934732 -0.129831  0.330788
			-0.671489 -0.172583  0.720637
			-0.824461 -0.104794  0.556131
			-0.571375 -0.251729  0.781130
			-0.616114 -0.128216  0.777151
			-0.665777 -0.081943  0.741638
			-0.346698 -0.885208 -0.310174
			-0.646720 -0.751686 -0.129315
			-0.461066 -0.818214 -0.343431
			-0.326197 -0.884627 -0.333213
			-0.136803 -0.954727 -0.264161
			 0.367948 -0.928647 -0.047217
			 0.640649 -0.764325 -0.073321
			 0.721889 -0.689759 -0.055756
			 0.530558 -0.845015 -0.066771
			 0.028518 -0.996347  0.080493
			 0.591363 -0.803887 -0.063685
			 0.743220 -0.668233 -0.032989
			 0.491333 -0.868167 -0.069842
			 0.777579 -0.598620  0.192419
			 0.846353 -0.531212 -0.038729
			 0.903659 -0.426183  0.042049
			 0.263666 -0.514376  0.816025
			-0.033976 -0.384844  0.922356
			-0.320264 -0.307794  0.895932
			-0.499482 -0.281583  0.819286
			-0.642035 -0.125205  0.756383
			 0.757963 -0.538644  0.367907
			 0.719864 -0.433013  0.542491
			 0.453258 -0.492272  0.743119
			 0.603072 -0.451377  0.657696
			-0.855805 -0.494680  0.151295
			-0.770312 -0.636569 -0.037405
			-0.908435 -0.348602  0.230700
			-0.963052 -0.237451  0.127071
			-0.759780 -0.115776  0.639789
			-0.659259 -0.115676  0.742964
			-0.589511 -0.201819  0.782142
			-0.585515 -0.286148  0.758479
			-0.551116 -0.263917  0.791593
			-0.768851 -0.095061  0.632322
			-0.984206 -0.166595 -0.059869
			-0.986615 -0.143993 -0.076535
			-0.819971 -0.033416  0.571429
			-0.984382 -0.075812  0.158889
			-0.939287 -0.027201  0.342053
			-0.731907 -0.061149  0.678655
			-0.818276  0.018850  0.574516
			-0.549758 -0.126077  0.825755
			-0.539287  0.069244  0.839271
			-0.577091  0.095203  0.811112
			-0.681080  0.019841  0.731940
			-0.711815 -0.670906 -0.207856
			-0.380954 -0.836737 -0.393377
			-0.484048 -0.778377 -0.399784
			-0.286746 -0.936205 -0.203216
			-0.515410 -0.793281 -0.324128
			-0.536214 -0.773525 -0.337837
			-0.258547 -0.965144 -0.040632
			 0.551835 -0.825053  0.121512
			 0.467971 -0.883660 -0.012138
			-0.470438 -0.882092  0.024538
			-0.156270 -0.967646  0.198092
			 0.071488 -0.938654  0.337369
			 0.317227 -0.869270  0.379126
			 0.532359 -0.845600  0.039439
			 0.713915 -0.699377 -0.034599
			 0.801634 -0.587453  0.110824
			 0.871856 -0.484164  0.073841
			 0.839425 -0.514043  0.176426
			 0.942594 -0.271593  0.194304
			 0.974706 -0.222909  0.016115
			 0.971888 -0.235349  0.006734
			 0.857239 -0.443504  0.261621
			 0.919745 -0.300112  0.252986
			 0.972213 -0.232570  0.026700
			 0.958492 -0.255518  0.126507
			 0.494520 -0.343119  0.798573
			 0.184590 -0.324217  0.927798
			-0.098391 -0.201504  0.974533
			-0.385242 -0.186737  0.903724
			-0.667507 -0.063371  0.741902
			 0.828485 -0.380754  0.410656
			 0.728113 -0.303270  0.614719
			-0.895596 -0.444822  0.006454
			-0.952646 -0.286878  0.100833
			-0.978233 -0.206108 -0.024078
			-0.735700 -0.069435  0.673739
			-0.461241 -0.097343  0.881919
			-0.570826 -0.043970  0.819893
			-0.377968 -0.051306  0.924396
			-0.438559 -0.004211  0.898693
			-0.936178 -0.159123 -0.313450
			-0.882524 -0.195500 -0.427705
			-0.908301 -0.142453 -0.393315
			-0.896805 -0.202934 -0.393139
			-0.958651 -0.209693 -0.192396
			-0.985712 -0.125793  0.112019
			-0.971876 -0.217601 -0.090043
			-0.780613  0.038624  0.623820
			-0.744353  0.003472  0.667778
			-0.899308 -0.063552  0.432672
			-0.957129 -0.153471  0.245662
			-0.916781  0.038157  0.397562
			-0.859679  0.037378  0.509466
			-0.711533  0.060471  0.700046
			-0.393301  0.171387  0.903294
			-0.341241  0.318640  0.884321
			-0.612970  0.068704  0.787113
			-0.532962  0.088832  0.841463
			-0.434131  0.254124  0.864263
			-0.375521  0.216809  0.901098
			-0.606500 -0.619129 -0.498836
			-0.779430 -0.572977 -0.253351
			-0.497152 -0.701067 -0.511219
			-0.584821 -0.709390 -0.393384
			-0.454182 -0.863564 -0.219037
			 0.652982 -0.753270  0.078736
			 0.851447 -0.492499  0.180228
			 0.970529 -0.235958  0.048968
			-0.388149 -0.917303  0.088862
			-0.624039 -0.781078 -0.022185
			-0.535491 -0.844049 -0.028819
			-0.661694 -0.743214 -0.098967
			-0.682277 -0.731089 -0.002667
			 0.013252 -0.981619  0.190390
			 0.084228 -0.932786  0.350451
			-0.017774 -0.996676  0.079502
			-0.346605 -0.936620  0.051073
			 0.287264 -0.829617  0.478764
			 0.439565 -0.783136  0.439865
			 0.394766 -0.854014  0.338852
			 0.666803 -0.720254  0.191333
			 0.900216 -0.432863  0.047338
			 0.559034 -0.800020  0.217828
			 0.754693 -0.539767  0.372948
			 0.886151 -0.404382  0.226299
			 0.790200 -0.333350  0.514258
			 0.853121 -0.118454  0.508088
			 0.993118 -0.115581  0.018928
			 0.925543 -0.097562  0.365857
			 0.984016 -0.066425  0.165229
			 0.988662 -0.148994 -0.018641
			 0.994247 -0.101943  0.032886
			 0.868980 -0.295209  0.397146
			 0.912513 -0.215306  0.347799
			 0.941756 -0.175033  0.287156
			 0.971320 -0.118657  0.206056
			 0.496869 -0.137888  0.856801
			 0.302170 -0.231879  0.924622
			 0.010306 -0.138834  0.990262
			-0.435997 -0.078120  0.896551
			 0.863283 -0.219191  0.454640
			 0.715050 -0.146213  0.683612
			-0.955867 -0.256926 -0.142503
			-0.884572 -0.423473 -0.195457
			-0.256549  0.118946  0.959184
			-0.345013 -0.063204  0.936467
			-0.495128 -0.010830  0.868752
			-0.367137  0.002091  0.930165
			-0.169571  0.131775  0.976668
			-0.205032  0.248955  0.946564
			-0.889674 -0.223311 -0.398262
			-0.829445 -0.242538 -0.503187
			-0.863176 -0.219416 -0.454735
			-0.866778 -0.189876 -0.461133
			-0.858339 -0.237563 -0.454772
			-0.888944 -0.231482 -0.395215
			-0.846456 -0.201725 -0.492767
			-0.918222 -0.216786 -0.331470
			-0.885489 -0.194093 -0.422182
			-0.942917 -0.231666 -0.239244
			-0.969846 -0.229827  0.081105
			-0.968644 -0.247781  0.018239
			-0.955002 -0.251506 -0.157213
			-0.923201 -0.264307 -0.279000
			-0.783618  0.039696  0.619974
			-0.891430 -0.135462  0.432438
			-0.835628 -0.078348  0.543679
			-0.964743 -0.219380  0.145406
			-0.734496 -0.027401  0.678060
			-0.655066  0.056329  0.753469
			-0.198306  0.415283  0.887815
			-0.244897  0.424689  0.871587
			-0.150864  0.343062  0.927118
			 0.030308  0.449880  0.892575
			 0.034938  0.585233  0.810112
			-0.345379  0.161034  0.924544
			-0.340061  0.096516  0.935438
			-0.548240 -0.006970  0.836292
			-0.542371 -0.013556  0.840030
			-0.118083  0.213541  0.969771
			-0.563801 -0.589415 -0.578548
			-0.602451 -0.592960 -0.534277
			-0.690485 -0.470971 -0.549014
			-0.744133 -0.525254 -0.412763
			-0.770123 -0.633500 -0.074762
			-0.711368 -0.637590 -0.295695
			-0.682136 -0.684564 -0.257028
			-0.387049 -0.900824 -0.196748
			-0.565647 -0.778685 -0.271466
			-0.779601 -0.615584 -0.115233
			 0.262553 -0.884938  0.384644
			 0.039224 -0.989260  0.140804
			 0.798103 -0.602331 -0.015149
			-0.100561 -0.993857 -0.046218
			-0.280564 -0.959302 -0.031981
			 0.797003 -0.603709 -0.017943
			 0.704132 -0.598640  0.381874
			 0.483419 -0.698509  0.527628
			 0.651043 -0.557131  0.515507
			 0.636709 -0.493356  0.592623
			 0.780809 -0.085830  0.618847
			 0.842932 -0.226788  0.487886
			 0.757919 -0.390369  0.522658
			 0.839449 -0.293802  0.457171
			 0.682836 -0.525798  0.507219
			 0.611233 -0.539025  0.579523
			 0.887581  0.074394  0.454605
			 0.999187  0.021597  0.034051
			 0.958277  0.188138  0.215197
			 0.967079  0.076468  0.242715
			 0.890947 -0.123805  0.436904
			 0.948533 -0.015555  0.316295
			 0.927560 -0.013826  0.373418
			 0.652497  0.049965  0.756142
			 0.250357 -0.090082  0.963954
			 0.446087  0.096953  0.889723
			 0.238789  0.049624  0.969803
			-0.266604 -0.017257  0.963652
			 0.035668  0.029146  0.998939
			 0.793756  0.046667  0.606444
			-0.842703 -0.372293 -0.388909
			-0.861253 -0.286945 -0.419410
			-0.034841  0.301440  0.952848
			 0.026357  0.353875  0.934921
			-0.181863  0.070980  0.980759
			 0.090796  0.297556  0.950377
			-0.037775  0.540032  0.840796
			-0.807510 -0.304939 -0.504915
			-0.789842 -0.426058 -0.441163
			-0.924185 -0.205061 -0.322230
			-0.879729 -0.228388 -0.417032
			-0.846561 -0.256482 -0.466423
			-0.855813 -0.245317 -0.455415
			-0.887850 -0.259078 -0.380264
			-0.897192 -0.261099 -0.356192
			-0.897744 -0.257853 -0.357166
			-0.925765 -0.260093 -0.274429
			-0.973856 -0.227149  0.002696
			-0.889829 -0.250694 -0.381257
			-0.795219 -0.136100  0.590850
			-0.932492 -0.158614  0.324502
			-0.869577 -0.139279  0.473749
			-0.606941 -0.094522  0.789106
			 0.017703  0.580740  0.813896
			 0.082687  0.601844  0.794321
			 0.075551  0.311797  0.947140
			 0.294746  0.521559  0.800688
			 0.255893  0.349860  0.901175
			 0.410673  0.683290  0.603708
			 0.204598  0.710681  0.673107
			-0.063180  0.151069  0.986502
			-0.229181  0.104373  0.967772
			-0.427546 -0.010165  0.903937
			 0.093846  0.169525  0.981047
			-0.482357 -0.044309  0.874853
			-0.537914 -0.071218  0.839986
			-0.464846 -0.066448  0.882895
			 0.162444  0.197346  0.966782
			-0.669502 -0.599348 -0.438803
			-0.847330 -0.529151  0.045062
			-0.828697 -0.559377  0.018969
			-0.796003 -0.587742 -0.144705
			-0.770223 -0.511496 -0.380958
			-0.657915 -0.472805 -0.586177
			-0.607245 -0.572729 -0.550668
			-0.595351 -0.651924 -0.469631
			-0.361800 -0.806590 -0.467454
			-0.225255 -0.859438 -0.458940
			-0.156233 -0.950033 -0.270237
			-0.056538 -0.988348 -0.141323
			-0.519609 -0.689810 -0.504152
			-0.836416 -0.473173 -0.276615
			-0.876602 -0.471511 -0.096154
			 0.141527 -0.987418  0.070538
			 0.375515 -0.880074  0.290617
			 0.410814 -0.766827  0.493162
			 0.013510 -0.988993 -0.147342
			 0.790028 -0.611757 -0.040130
			 0.131663 -0.953704 -0.270396
			 0.512826 -0.650793  0.559891
			 0.849525 -0.136112  0.509688
			 0.868571  0.040526  0.493905
			 0.786199  0.087191  0.611791
			 0.950117 -0.173037  0.259490
			 0.936339 -0.140081  0.321941
			 0.840921 -0.391976  0.373103
			 0.770193 -0.516151  0.374688
			 0.933660 -0.224482  0.279081
			 0.529973 -0.723120  0.442974
			 0.618061 -0.663982  0.420866
			 0.676868 -0.683287  0.273804
			 0.773307  0.211130  0.597846
			 0.871982  0.191974  0.450326
			 0.957541  0.287189  0.025256
			 0.971901  0.230567  0.047412
			 0.903810  0.416034  0.100213
			 0.823737  0.323393  0.465698
			 0.879858  0.313343  0.357304
			 0.855551  0.212851  0.471940
			 0.915507  0.281494  0.287417
			 0.878781  0.084844  0.469623
			 0.618943  0.139838  0.772887
			 0.711333  0.186137  0.677760
			 0.521845  0.192282  0.831087
			 0.301483  0.194049  0.933516
			 0.117143  0.169010  0.978628
			 0.234551  0.423454  0.875027
			 0.157540  0.576711  0.801614
			 0.233017  0.329454  0.914966
			 0.346843  0.434740  0.831084
			 0.372063  0.574935  0.728710
			 0.304522  0.741116  0.598342
			-0.803995 -0.544411 -0.239185
			-0.905255 -0.361535 -0.223172
			-0.934001 -0.185913 -0.305087
			-0.920840 -0.158497 -0.356276
			-0.925968 -0.163970 -0.340141
			-0.834927 -0.164381 -0.525238
			-0.849090 -0.259363 -0.460192
			-0.842671 -0.197226 -0.501007
			-0.741401 -0.164242 -0.650652
			-0.792652 -0.239505 -0.560660
			-0.942290 -0.229793 -0.243484
			-0.900570 -0.205009  0.383333
			-0.919492 -0.206640  0.334417
			-0.944232 -0.231198 -0.234464
			-0.981221 -0.148875  0.122645
			-0.968456 -0.208778 -0.136033
			-0.964085 -0.213668 -0.157756
			-0.840799 -0.215060 -0.496797
			-0.841656 -0.170037  0.512545
			-0.679202 -0.148991  0.718670
			-0.471269 -0.104986  0.875719
			 0.274377  0.704788  0.654211
			 0.252852  0.764033  0.593565
			 0.491264  0.352176  0.796638
			 0.601988  0.493904  0.627431
			 0.419465  0.238980  0.875750
			 0.408524  0.737745  0.537439
			 0.525282  0.721196  0.451613
			 0.621367  0.618144  0.481458
			 0.436327  0.780667  0.447413
			 0.234060  0.184835  0.954491
			-0.142542  0.028250  0.989386
			-0.063449  0.182658  0.981127
			 0.184559  0.126541  0.974641
			 0.879324  0.085364  0.468511
			 0.841594  0.104604  0.529884
			-0.837559 -0.542521  0.064547
			-0.875301 -0.481378 -0.046084
			-0.696484 -0.334630 -0.634771
			-0.790640 -0.386162 -0.475150
			-0.527910 -0.364565 -0.767074
			-0.525968 -0.464504 -0.712456
			-0.505302 -0.534450 -0.677520
			-0.219128 -0.708718 -0.670598
			-0.402973 -0.626686 -0.666991
			-0.286001 -0.672185 -0.682913
			-0.155354 -0.695488 -0.701542
			-0.062969 -0.878038 -0.474431
			-0.256552 -0.957182 -0.134106
			 0.058420 -0.888485 -0.455172
			-0.876184 -0.342574 -0.339036
			-0.828538 -0.307830 -0.467724
			-0.923468 -0.268403 -0.274167
			-0.934411 -0.320232 -0.155972
			 0.374768 -0.927091 -0.007212
			 0.452778 -0.890897  0.035985
			 0.525112 -0.827184  0.200059
			 0.360772 -0.898051 -0.251689
			 0.208527 -0.856078 -0.472912
			 0.151204 -0.851168 -0.502643
			 0.926132 -0.114102  0.359527
			 0.975401  0.037746  0.217182
			 0.934762  0.187516  0.301760
			 0.873987  0.242776  0.420959
			 0.796163  0.219535  0.563851
			 0.768025 -0.593421  0.240811
			 0.867150 -0.446868  0.219909
			 0.907597 -0.341022  0.244892
			 0.943736 -0.261988  0.201803
			 0.961655 -0.144736  0.232961
			 0.949468 -0.133563  0.284027
			 0.597424 -0.800862 -0.041275
			 0.715339  0.406201  0.568586
			 0.958964  0.283503  0.003782
			 0.915501  0.396565  0.067787
			 0.926405  0.342047  0.157409
			 0.951984  0.304533 -0.031408
			 0.922527  0.385759 -0.011544
			 0.822933  0.481048  0.302283
			 0.645437  0.760914 -0.066488
			 0.846109  0.529743 -0.058925
			 0.811898  0.565734  0.144108
			 0.742971  0.465562  0.480881
			 0.811133  0.290312  0.507723
			 0.759910  0.516555  0.394599
			 0.823657  0.501802  0.264166
			 0.719808  0.432677  0.542833
			 0.628228  0.313197  0.712206
			 0.473334  0.312240  0.823688
			 0.280697  0.294431  0.913520
			 0.376982  0.626222  0.682444
			 0.552146  0.475207  0.685064
			 0.413801  0.606528  0.678890
			 0.465244  0.703907  0.536715
			 0.459853  0.762583  0.454975
			-0.885629 -0.195287 -0.421336
			-0.897810 -0.156662 -0.411574
			-0.899251 -0.152031 -0.410163
			-0.759499 -0.140236 -0.635212
			-0.624932 -0.047998 -0.779202
			-0.752817 -0.075546 -0.653881
			-0.833455 -0.206246 -0.512655
			-0.652883 -0.076290 -0.753607
			-0.570818 -0.088290 -0.816316
			-0.675144 -0.184287 -0.714296
			-0.762268 -0.201319 -0.615157
			-0.700753 -0.198493 -0.685234
			-0.932326 -0.217366 -0.288999
			-0.916470 -0.211181 -0.339832
			-0.837240 -0.178047  0.517038
			-0.913173 -0.144539  0.381082
			-0.957776 -0.051267  0.282907
			-0.939888 -0.206717 -0.271805
			-0.966915 -0.189366 -0.170925
			-0.976603 -0.173078  0.127637
			-0.846234 -0.216432 -0.486873
			-0.710588 -0.180573 -0.680043
			-0.790795 -0.159659  0.590891
			-0.681187 -0.111297  0.723600
			-0.695879 -0.146269  0.703106
			-0.225799 -0.073584  0.971391
			-0.666004 -0.180098  0.723881
			-0.474786 -0.199292  0.857240
			 0.696623  0.300523  0.651462
			 0.652113  0.231956  0.721765
			 0.778109  0.434457  0.453644
			 0.833008  0.279620  0.477400
			 0.697473  0.532188  0.479904
			 0.451156  0.180181  0.874067
			 0.567809  0.178896  0.803486
			 0.587432  0.723831  0.361929
			 0.747004  0.593175  0.300216
			 0.142450  0.142759  0.979453
			 0.097030  0.079766  0.992080
			 0.737874  0.118176  0.664512
			 0.308587  0.198692  0.930212
			-0.458402 -0.266434 -0.847868
			-0.496402 -0.232848 -0.836282
			-0.788007 -0.229577 -0.571260
			-0.629007 -0.211100 -0.748189
			-0.310952 -0.419703 -0.852736
			-0.292769 -0.275839 -0.915532
			-0.180767 -0.528042 -0.829756
			-0.091161 -0.494103 -0.864611
			-0.047133 -0.501480 -0.863885
			-0.035031 -0.710876 -0.702445
			 0.081141 -0.704974 -0.704577
			 0.219743 -0.863018 -0.454877
			 0.309742 -0.789332 -0.530109
			 0.471647 -0.794449 -0.382622
			 0.128098 -0.696809 -0.705725
			 0.177151 -0.705473 -0.686240
			 0.989987  0.085611 -0.112231
			 0.963847  0.256211  0.073181
			 0.995994 -0.072719  0.052029
			 0.873040  0.387406  0.296173
			 0.933231  0.280299  0.224751
			 0.808463  0.363365  0.462983
			 0.611877 -0.790785 -0.016297
			 0.685044 -0.727802  0.031920
			 0.804063 -0.588489  0.084638
			 0.917365 -0.396937  0.029726
			 0.974483 -0.215348  0.063310
			 0.485049 -0.815391 -0.316014
			 0.674382  0.595800  0.436155
			 0.733778  0.540746  0.411296
			 0.875337  0.477785  0.074201
			 0.688712  0.660709  0.298561
			 0.728951  0.684482 -0.010728
			 0.581065  0.813666 -0.017658
			 0.631556  0.770037  0.090448
			 0.597774  0.801131  0.029248
			 0.712897  0.602957  0.358079
			 0.704561  0.573483  0.417984
			 0.784859  0.604489  0.136343
			 0.617269  0.758579  0.208655
			 0.683382  0.508316  0.524027
			 0.540974  0.695515  0.472870
			 0.547291  0.784381  0.291924
			-0.580161 -0.087523 -0.809786
			-0.574114 -0.148423 -0.805210
			-0.562009 -0.093040 -0.821882
			-0.502642 -0.039202 -0.863605
			-0.436754 -0.068911 -0.896937
			-0.480897 -0.061496 -0.874618
			-0.545819 -0.149286 -0.824497
			-0.591855 -0.142354 -0.793374
			-0.908069 -0.190531 -0.372973
			-0.867498 -0.186602 -0.461115
			-0.810212 -0.237411 -0.535904
			-0.824868 -0.196721 -0.529994
			-0.784470 -0.157621  0.599802
			-0.866762 -0.128078  0.481996
			-0.850655 -0.128979  0.509658
			-0.889226 -0.123165  0.440576
			-0.931823 -0.140909  0.334440
			-0.952196 -0.161760 -0.259145
			-0.981773 -0.178149 -0.066217
			-0.918689 -0.154867 -0.363354
			-0.986977 -0.160859 -0.000538
			-0.989245 -0.145752 -0.012257
			-0.946943 -0.123957  0.296535
			-0.981303 -0.149908  0.120712
			-0.577662 -0.174590 -0.797386
			-0.505339 -0.113299 -0.855451
			-0.734239 -0.158321 -0.660172
			-0.626202 -0.153835 -0.764334
			 0.019247  0.004621  0.999804
			-0.149374 -0.143478  0.978316
			-0.564903 -0.241490  0.789029
			-0.673091 -0.168385  0.720135
			-0.807458 -0.140439  0.572965
			-0.256092 -0.199217  0.945901
			 0.777253  0.231119  0.585203
			 0.528704  0.210890  0.822191
			 0.762101  0.209617  0.612587
			 0.892722  0.320150  0.317097
			 0.888327  0.407995  0.210750
			 0.794213  0.255485  0.551319
			 0.912875  0.271221  0.305121
			 0.920638  0.168881  0.352002
			 0.852313  0.173636  0.493370
			 0.594583  0.781568  0.188743
			 0.664868  0.741840  0.087318
			 0.784658  0.616013  0.069572
			 0.493517  0.183006  0.850264
			 0.343651  0.098139  0.933956
			 0.637331  0.254368  0.727397
			-0.144336 -0.163836 -0.975871
			-0.347876 -0.225984 -0.909898
			-0.242456 -0.167898 -0.955524
			-0.203643 -0.183683 -0.961660
			-0.414540 -0.206399 -0.886316
			-0.027642 -0.173781 -0.984396
			-0.095157 -0.341319 -0.935118
			 0.028564 -0.329274 -0.943802
			 0.042534 -0.494952 -0.867879
			 0.096675 -0.470279 -0.877207
			 0.147011 -0.551759 -0.820945
			 0.337981 -0.649717 -0.680909
			 0.423189 -0.620956 -0.659792
			 0.457415 -0.767498 -0.449131
			 0.093941 -0.487943 -0.867806
			 0.954465  0.256187 -0.152855
			 0.936160 -0.019502 -0.351034
			 0.957380  0.114149 -0.265319
			 0.990703 -0.076865 -0.112244
			 0.911105  0.411685  0.020093
			 0.902440  0.397126  0.167012
			 0.845398  0.467439  0.258461
			 0.740647  0.615978  0.268354
			 0.477901 -0.836381 -0.268472
			 0.609297 -0.772892 -0.177185
			 0.785449 -0.611717 -0.094193
			 0.796183 -0.534095 -0.284316
			 0.889879 -0.376345 -0.257838
			 0.954907 -0.191901 -0.226553
			 0.591183  0.730150  0.342614
			 0.616959  0.696330  0.366723
			 0.639443  0.672770  0.372146
			 0.714997  0.654396  0.246058
			 0.617250  0.681209  0.393646
			 0.717168  0.691652  0.085365
			 0.777131  0.629035 -0.019578
			 0.444209  0.829107  0.339500
			 0.526510  0.744474  0.410544
			 0.614801  0.710830  0.341673
			 0.341828  0.886847  0.310895
			-0.268300 -0.195073 -0.943378
			-0.335945 -0.013643 -0.941783
			-0.196625  0.016082 -0.980347
			-0.231142 -0.053809 -0.971431
			-0.417133 -0.119984 -0.900891
			-0.279932 -0.121155 -0.952344
			-0.460132 -0.149095 -0.875243
			-0.484817 -0.135612 -0.864038
			-0.860014 -0.175044 -0.479307
			-0.812665 -0.172527 -0.556606
			-0.866984 -0.110837  0.485853
			-0.933644 -0.112923  0.339937
			-0.979623 -0.159079 -0.122609
			-0.845940 -0.160173 -0.508655
			-0.917319 -0.150589 -0.368578
			-0.978548 -0.177083 -0.105288
			-0.986103 -0.133048  0.099495
			-0.463793 -0.118227 -0.878020
			-0.533319 -0.137198 -0.834714
			-0.383854 -0.100709 -0.917886
			-0.280121 -0.074526 -0.957067
			-0.728093 -0.139416 -0.671151
			-0.599436 -0.116868 -0.791845
			 0.214441 -0.016968  0.976590
			 0.142652 -0.115174  0.983049
			-0.442885 -0.159981  0.882190
			-0.383521 -0.083706  0.919731
			-0.748507 -0.151471  0.645596
			-0.619291 -0.106485  0.777908
			-0.800967 -0.114483  0.587660
			-0.093059 -0.090543  0.991535
			 0.803893  0.171010  0.569660
			 0.731408  0.243706  0.636906
			 0.948458  0.226386  0.221756
			 0.884272  0.466793 -0.012940
			 0.950191  0.309811  0.033980
			 0.964135  0.233420  0.126332
			 0.889830  0.142101  0.433602
			 0.937360  0.079994  0.339054
			 0.947675  0.102161  0.302449
			 0.945241  0.128344  0.300077
			 0.938457  0.165156  0.303353
			 0.804738  0.206165  0.556680
			 0.844220  0.167339  0.509205
			 0.903258  0.426757 -0.044753
			 0.733802  0.210006  0.646089
			 0.694342  0.187877  0.694688
			 0.581314  0.198383  0.789125
			 0.463812  0.111148  0.878934
			 0.478298  0.118289  0.870195
			 0.053213 -0.101079 -0.993454
			-0.050735 -0.143601 -0.988334
			 0.085372 -0.097036 -0.991613
			 0.067279 -0.269942 -0.960523
			 0.145434 -0.443766 -0.884263
			 0.294355 -0.458237 -0.838674
			 0.525178 -0.558870 -0.641757
			 0.292966 -0.412571 -0.862529
			 0.601291 -0.703085 -0.379632
			 0.948639  0.136021 -0.285627
			 0.947926  0.301613 -0.102304
			 0.836368 -0.138229 -0.530454
			 0.769137 -0.096083 -0.631820
			 0.826315 -0.020073 -0.562850
			 0.766757  0.603725  0.218174
			 0.765548  0.588547  0.259900
			 0.878183  0.478171  0.012141
			 0.715866  0.632527  0.295711
			 0.556430  0.769032  0.314605
			 0.749489 -0.465166 -0.471049
			 0.840445 -0.277600 -0.465392
			 0.750798 -0.368804 -0.547984
			 0.566130  0.768850  0.297266
			 0.618843  0.672211  0.406407
			 0.685350  0.651219  0.325899
			 0.750766  0.520854  0.406279
			 0.847541  0.509195  0.149649
			 0.825278  0.479181  0.298834
			 0.565109  0.704628  0.429129
			 0.764993  0.465267  0.445323
			 0.746737  0.503694  0.434369
			 0.912326  0.400597  0.084756
			 0.831602  0.555368  0.002095
			 0.959938  0.278784 -0.028268
			-0.196215 -0.298137 -0.934138
			-0.089169 -0.446534 -0.890312
			-0.078950 -0.283544 -0.955704
			-0.062282 -0.208635 -0.976008
			-0.106126  0.052595 -0.992961
			-0.152637  0.061537 -0.986365
			 0.058479  0.055343 -0.996753
			-0.069860 -0.056310 -0.995966
			-0.190648 -0.066438 -0.979408
			-0.026787 -0.012008 -0.999569
			-0.130084 -0.221854 -0.966364
			-0.881816 -0.104037  0.459976
			-0.860134 -0.110877  0.497872
			-0.878981 -0.105528  0.465035
			-0.950746 -0.121859  0.285014
			-0.987328 -0.125158  0.097561
			-0.808899 -0.129358 -0.573540
			-0.973501 -0.158748 -0.164604
			-0.947042 -0.143506 -0.287259
			-0.867145 -0.136715 -0.478924
			-0.818546 -0.092703 -0.566911
			-0.984599 -0.141469 -0.102717
			-0.292139 -0.091118 -0.952025
			-0.430330 -0.102962 -0.896780
			-0.433325 -0.086109 -0.897115
			 0.005749 -0.062852 -0.998006
			 0.003272 -0.086567 -0.996241
			-0.200556 -0.055330 -0.978119
			-0.708675 -0.119619 -0.695321
			-0.558602 -0.089581 -0.824584
			-0.441586 -0.090852 -0.892607
			 0.451398  0.017106  0.892159
			 0.235942 -0.029034  0.971333
			-0.031024 -0.046250  0.998448
			-0.238287 -0.069822  0.968682
			-0.662024 -0.091226  0.743910
			-0.415458 -0.109507  0.902997
			-0.839983 -0.117076  0.529832
			 0.982130  0.185460 -0.032007
			 0.982218  0.187368 -0.011864
			 0.948450  0.316637 -0.013548
			 0.958882  0.220238  0.179001
			 0.947096  0.319239  0.033098
			 0.909788  0.112176  0.399628
			 0.835988  0.151896  0.527306
			 0.964399  0.137597  0.225834
			 0.984135  0.129002  0.121804
			 0.986308  0.109373  0.123429
			 0.958863  0.139217  0.247386
			 0.897825  0.140348  0.417387
			 0.923425  0.141383  0.356787
			 0.941420  0.105836  0.320198
			 0.913137  0.194381  0.358326
			 0.918231  0.246833  0.309719
			 0.941029  0.246418  0.231826
			 0.963582  0.253669  0.084624
			 0.786005  0.164247  0.596003
			 0.763297  0.163245  0.625083
			 0.635593  0.125973  0.761677
			 0.709941  0.156717  0.686603
			 0.008627 -0.250428 -0.968097
			 0.017614 -0.154049 -0.987906
			 0.032301 -0.224073 -0.974037
			 0.170213 -0.296102 -0.939867
			 0.232769 -0.413438 -0.880277
			 0.530399 -0.425422 -0.733276
			 0.895886  0.113672 -0.429497
			 0.954087  0.278565 -0.110090
			 0.622859 -0.311994 -0.717431
			 0.668835 -0.198369 -0.716456
			 0.576416 -0.101121 -0.810875
			 0.552455 -0.146652 -0.820541
			 0.625732 -0.032812 -0.779348
			 0.587910  0.716133  0.376184
			 0.620741  0.669836  0.407433
			 0.736063  0.638444  0.224947
			 0.541564  0.765346  0.347785
			 0.800737  0.542931 -0.253074
			 0.773431  0.633854  0.005828
			 0.883012  0.357959 -0.303571
			 0.736998  0.656574  0.160450
			 0.498001  0.807651  0.315744
			 0.502745 -0.353174 -0.788996
			 0.679012  0.682611  0.270157
			 0.619611  0.587109  0.520947
			 0.724504  0.496968  0.477616
			 0.753219  0.596384  0.277466
			 0.817958  0.495482  0.292305
			 0.826529  0.311018  0.469166
			 0.861197  0.326895  0.389203
			 0.925460  0.305016  0.224696
			 0.813966  0.327509  0.479789
			 0.871327  0.210709  0.443161