<?xml version="1.0"?>
<VTKFile type="PolyData" version="0.1" byte_order="LittleEndian" compressor="vtkZLibDataCompressor">
	<PolyData>
		<Piece NumberOfPoints="1321" NumberOfVerts="0" NumberOfLines="0" NumberOfStrips="0" NumberOfPolys="2638">
		<PointData Normals="Normals">
		<DataArray type="Float32" Name="Normals" NumberOfComponents="3" format="ascii">
			 0.138639 -0.924745 -0.354436
			 0.266370 -0.934026 -0.237997
			-0.169485 -0.944700 -0.280743
			-0.051660 -0.934577 -0.351991
			 0.403493 -0.861695 -0.307694
			 0.421266 -0.854012 -0.305284
			 0.198221 -0.980136 -0.006505
			 0.486382 -0.870146 -0.079236
			-0.600767 -0.707055 -0.373031
			-0.525344 -0.735146 -0.428454
			-0.306337 -0.938612 -0.158633
			-0.182744 -0.971786 -0.149122
			-0.508070 -0.728679 -0.459229
			-0.347318 -0.770938 -0.533878
			 0.101388 -0.899052 -0.425942
			 0.557463 -0.830005 -0.018101
			 0.613416 -0.782590 -0.106176
			 0.297201 -0.797806 -0.524573
			 0.528691 -0.767225 -0.363114
			 0.005355 -0.998917  0.046217
			 0.389557 -0.882183  0.264572
			 0.491687 -0.854888  0.165562
			-0.780290 -0.420390 -0.463055
			-0.801836 -0.410857 -0.433884
			-0.681355 -0.663358 -0.309373
			-0.758235 -0.441076 -0.480137
			-0.157734 -0.985055 -0.069181
			-0.447190 -0.886776 -0.116835
			 0.037725 -0.995098  0.091420
			 0.006174 -0.996926  0.078101
			-0.702942 -0.464503 -0.538618
			-0.171281 -0.727269 -0.664637
			-0.538892 -0.503721 -0.675175
			 0.434209 -0.846918  0.306907
			 0.532151 -0.833342  0.149519
			 0.568228 -0.805626 -0.167580
			-0.020489 -0.640969 -0.767293
			 0.253886 -0.752637 -0.607519
			 0.414885 -0.817233 -0.400001
			 0.474221 -0.861385  0.182018
			 0.444227 -0.879362  0.171421
			-0.868562 -0.216494 -0.445792
			-0.882179 -0.208218 -0.422382
			-0.842502 -0.404134 -0.356183
			-0.883149 -0.247727 -0.398346
			-0.763854 -0.601658 -0.233527
			-0.857403 -0.228241 -0.461265
			-0.605593 -0.794782 -0.039733
			-0.171651 -0.976377  0.131240
			 0.224276 -0.942238  0.248773
			-0.768293 -0.290605 -0.570329
			-0.291085 -0.561388 -0.774669
			-0.507742 -0.447863 -0.735946
			 0.417943 -0.877910  0.233663
			 0.622767 -0.731072  0.278738
			 0.644115 -0.764648  0.020728
			 0.564393 -0.784647 -0.256496
			-0.028631 -0.634640 -0.772277
			-0.135885 -0.667949 -0.731696
			 0.177448 -0.822098 -0.540988
			 0.415832 -0.834181 -0.362250
			 0.486540 -0.828303  0.277838
			 0.483474 -0.853942  0.192448
			-0.927408 -0.077559 -0.365922
			-0.859991 -0.044447 -0.508370
			-0.912938 -0.207690 -0.351297
			-0.881417 -0.398330 -0.253847
			-0.852023 -0.497841 -0.161902
			-0.819455 -0.134702 -0.557090
			-0.736032 -0.673543  0.067799
			-0.463025 -0.828857  0.314014
			-0.039854 -0.906247  0.420865
			 0.207770 -0.822804  0.528984
			-0.668724 -0.281129 -0.688312
			-0.440640 -0.401015 -0.803133
			 0.639788 -0.691353  0.335711
			 0.589914 -0.726390  0.352645
			 0.693528 -0.686890  0.217258
			 0.771327 -0.512937  0.376763
			 0.752654 -0.654562 -0.071137
			 0.648682 -0.679316 -0.343135
			-0.133924 -0.624072 -0.769805
			 0.172146 -0.794006 -0.583027
			 0.398569 -0.791434 -0.463439
			 0.621375 -0.695282 -0.361216
			 0.475135 -0.721504  0.503665
			 0.381436 -0.705048  0.597840
			-0.921561 -0.058681 -0.383774
			-0.879755 -0.035133 -0.474127
			-0.951871 -0.025970 -0.305395
			-0.737906  0.035261 -0.673982
			-0.782909  0.133360 -0.607675
			-0.734903 -0.114247 -0.668480
			-0.817268  0.066617 -0.572394
			-0.953472 -0.124622 -0.274519
			-0.896205 -0.098043 -0.432670
			-0.927402 -0.347717 -0.137908
			-0.861518 -0.507631 -0.009903
			-0.663687 -0.228018 -0.712410
			-0.778235 -0.604963  0.168433
			-0.198876 -0.786520  0.584667
			-0.593245 -0.710398  0.378675
			 0.106673 -0.739610  0.664528
			-0.471889 -0.280048 -0.835999
			-0.152478 -0.421817 -0.893768
			 0.736184 -0.504640  0.450967
			 0.580759 -0.631633  0.513574
			 0.825477 -0.510710  0.240340
			 0.807070 -0.412963  0.422019
			 0.893508 -0.330791  0.303678
			 0.881972 -0.313583  0.351838
			 0.902390 -0.428650 -0.044179
			 0.791236 -0.499154 -0.353258
			 0.707237 -0.484504 -0.514851
			 0.183102 -0.599330 -0.779280
			 0.523940 -0.637578 -0.564785
			 0.686021 -0.526429 -0.502243
			 0.414781 -0.673976  0.611321
			 0.259538 -0.691748  0.673888
			-0.947648 -0.061693 -0.313302
			-0.907500 -0.047763 -0.417328
			-0.963893 -0.033481 -0.264178
			-0.952403  0.043999 -0.301649
			-0.638188  0.230158 -0.734672
			-0.713660  0.003690 -0.700483
			-0.534707  0.100131 -0.839084
			-0.714028  0.187174 -0.674633
			-0.724056  0.160858 -0.670722
			-0.549441 -0.145972 -0.822683
			-0.683380  0.020209 -0.729783
			-0.956012 -0.192262 -0.221535
			-0.825625 -0.551540  0.118940
			-0.929337 -0.361312 -0.076076
			-0.334893 -0.754194  0.564834
			 0.001227 -0.746556  0.665321
			-0.707820 -0.634119  0.311262
			-0.774586 -0.578605  0.255409
			-0.077848 -0.314179 -0.946167
			-0.327374 -0.188204 -0.925962
			 0.081848 -0.341560 -0.936289
			 0.225455 -0.382261 -0.896128
			 0.792851 -0.327320  0.514051
			 0.654162 -0.486725  0.578940
			 0.801251 -0.396164  0.448388
			 0.923021 -0.348838  0.162310
			 0.955463 -0.257895  0.143460
			 0.853275 -0.280668  0.439486
			 0.928244 -0.176551  0.327404
			 0.926071 -0.336862 -0.170047
			 0.775498 -0.388991 -0.497282
			 0.731574 -0.409370 -0.545176
			 0.487480 -0.300574 -0.819767
			 0.642073 -0.366208 -0.673523
			 0.614364 -0.333782 -0.714945
			 0.468504 -0.495998 -0.731088
			 0.503812 -0.406511 -0.762182
			 0.197242 -0.580466  0.790035
			 0.517396 -0.496120  0.697256
			 0.039368 -0.655698  0.753996
			-0.071037 -0.728313  0.681552
			-0.952875 -0.279567 -0.117776
			-0.940252 -0.075856 -0.331922
			-0.988561 -0.042043 -0.144845
			-0.961158 -0.026138 -0.274758
			-0.886389  0.008410 -0.462864
			-0.984546  0.005739 -0.175034
			-0.963146  0.057534 -0.262753
			-0.999714  0.011806 -0.020797
			-0.939517  0.234703 -0.249445
			-0.986419  0.132474 -0.097095
			-0.430858  0.268976 -0.861402
			-0.508962  0.204099 -0.836242
			-0.735254  0.035715 -0.676851
			-0.539540  0.022407 -0.841662
			-0.328141  0.145788 -0.933311
			-0.258141  0.066812 -0.963794
			-0.481000  0.028088 -0.876271
			-0.939807 -0.324151 -0.108112
			-0.882025 -0.458366  0.109235
			-0.456840 -0.678585  0.575170
			-0.895848 -0.442024  0.045517
			-0.735354 -0.595119  0.324173
			-0.035130 -0.147713 -0.988406
			 0.232743 -0.202811 -0.951156
			 0.339964 -0.224153 -0.913334
			 0.671279 -0.289796  0.682205
			 0.945726 -0.127831  0.298766
			 0.943597 -0.131310  0.303944
			 0.758289 -0.296212  0.580738
			 0.674751 -0.352883  0.648216
			 0.925404 -0.364740  0.102924
			 0.870088 -0.149705  0.469612
			 0.884890 -0.017535  0.465470
			 0.924612 -0.108154  0.365234
			 0.882055 -0.374533 -0.285841
			 0.692860 -0.426639 -0.581312
			 0.613187 -0.364755 -0.700682
			 0.432030 -0.234166 -0.870928
			 0.308647 -0.064687 -0.948975
			 0.326624 -0.179548 -0.927944
			 0.385940 -0.418722  0.822023
			 0.205115 -0.430080  0.879181
			-0.045663 -0.511380  0.858141
			 0.049582 -0.369245  0.928009
			 0.564684 -0.253073  0.785548
			-0.250182 -0.603743  0.756904
			-0.896670 -0.419828  0.140450
			-0.823212 -0.496025  0.276192
			-0.914996 -0.401443  0.040313
			-0.982951 -0.161996 -0.086971
			-0.989895 -0.005716 -0.141690
			-0.865758  0.026976 -0.499736
			-0.943022  0.020957 -0.332070
			-0.995034  0.012504  0.098747
			-0.977077  0.188780 -0.098396
			-0.997153  0.046488 -0.059374
			-0.999523 -0.004796  0.030509
			-0.994965 -0.020504  0.098102
			-0.996924 -0.016299  0.076654
			-0.974398  0.173297 -0.143239
			-0.950724  0.233455 -0.204016
			-0.961077  0.267181 -0.070318
			-0.261568  0.287623 -0.921333
			-0.152360  0.300078 -0.941669
			-0.334983  0.159170 -0.928683
			-0.202536  0.014837 -0.979163
			-0.545199  0.036197 -0.837525
			-0.618627  0.066612 -0.782856
			-0.770945  0.055785 -0.634455
			-0.826808  0.049173 -0.560330
			-0.303913  0.031831 -0.952168
			-0.132480  0.204500 -0.969860
			-0.143411  0.127720 -0.981387
			-0.083692  0.035060 -0.995875
			 0.049697  0.107297 -0.992984
			-0.577252 -0.559191  0.595051
			-0.613264 -0.591314  0.523694
			 0.099695 -0.069231 -0.992607
			 0.127706 -0.071393 -0.989239
			 0.709812 -0.198665  0.675795
			 0.489117 -0.178196  0.853821
			 0.909730 -0.103693  0.402044
			 0.826384 -0.170556  0.536656
			 0.832374 -0.504984 -0.228352
			 0.841186 -0.533294 -0.089466
			 0.895617 -0.444014 -0.026870
			 0.943059 -0.286784  0.168505
			 0.819238 -0.037194  0.572246
			 0.809179  0.058406  0.584652
			 0.856244  0.058376  0.513263
			 0.979672 -0.117670  0.162472
			 0.972740  0.085413  0.215595
			 0.907854  0.101945  0.406705
			 0.706769 -0.373752 -0.600656
			 0.571016 -0.346059 -0.744436
			 0.531808 -0.263202 -0.804925
			 0.477832 -0.228162 -0.848304
			 0.274973 -0.064135 -0.959310
			 0.160642  0.094398 -0.982488
			 0.067552  0.106738 -0.991990
			 0.229433  0.079230 -0.970094
			 0.331168 -0.010235 -0.943516
			 0.264225 -0.275948  0.924142
			-0.159672 -0.420730  0.893023
			-0.114265 -0.274429  0.954794
			-0.032518 -0.234865  0.971484
			-0.453500 -0.422718  0.784632
			-0.777954 -0.517956  0.355680
			-0.920416 -0.362681  0.145937
			-0.949557 -0.232963  0.209928
			-0.977228  0.010963 -0.211907
			-0.903648  0.028172 -0.427348
			-0.934461 -0.181259  0.306477
			-0.954418  0.170211  0.245184
			-0.853604 -0.008444  0.520853
			-0.988299  0.111703 -0.103865
			-0.997831  0.008767 -0.065238
			-0.990286  0.079786  0.113875
			-0.947319  0.044071  0.317244
			-0.975775  0.012907  0.218394
			-0.908827  0.020697  0.416658
			-0.985410 -0.029516  0.167618
			-0.981398  0.191314  0.015999
			-0.945119  0.191159  0.264969
			-0.127391  0.112276 -0.985477
			 0.046737  0.253094 -0.966312
			 0.024521  0.226524 -0.973697
			 0.122329  0.204019 -0.971294
			-0.421760  0.041730 -0.905747
			-0.728868  0.066391 -0.681428
			-0.734878  0.050238 -0.676336
			-0.834545  0.045964 -0.549019
			-0.120629  0.020939 -0.992477
			 0.582778  0.136076 -0.801157
			 0.131886  0.036081 -0.990608
			 0.204100  0.162140 -0.965429
			 0.387363  0.093754 -0.917148
			 0.146873  0.180929 -0.972468
			-0.799447 -0.407167  0.441700
			-0.646642 -0.406679  0.645342
			 0.571493 -0.120969  0.811641
			 0.599525 -0.143732  0.787344
			 0.416652 -0.222442  0.881431
			 0.251851 -0.239493  0.937664
			 0.673574 -0.089203  0.733717
			 0.813334 -0.487654 -0.317304
			 0.897759 -0.395844 -0.193226
			 0.946804 -0.321784 -0.004131
			 0.854571  0.120683  0.505119
			 0.699548  0.004951  0.714569
			 0.809124  0.160988  0.565156
			 0.839941  0.134470  0.525753
			 0.878924  0.229251  0.418254
			 0.960617 -0.252750 -0.115464
			 0.999125 -0.041399 -0.005967
			 0.989233  0.078257  0.123666
			 0.952850  0.177429  0.246164
			 0.953178  0.281232  0.111177
			 0.979345  0.200532  0.025905
			 0.910203  0.317104  0.266413
			 0.850497 -0.280292 -0.445075
			 0.507812 -0.168538 -0.844821
			 0.695065 -0.205876 -0.688839
			 0.304562 -0.098572 -0.947378
			 0.342021 -0.148423 -0.927897
			 0.301284 -0.076987 -0.950422
			 0.125463  0.091947 -0.987828
			-0.377508 -0.231819  0.896520
			-0.327757 -0.177909  0.927860
			-0.219219 -0.253083  0.942280
			-0.474251 -0.160903  0.865561
			 0.140367 -0.277094  0.950535
			-0.649476 -0.223900  0.726670
			-0.810814 -0.339662  0.476667
			-0.950135  0.015243 -0.311465
			-0.895802  0.031476 -0.443337
			-0.990407 -0.006601  0.138026
			-0.995339  0.026997 -0.092588
			-0.912428  0.053491 -0.405727
			-0.855605  0.068718 -0.513048
			-0.827971 -0.218734  0.516352
			-0.869437  0.126047  0.477693
			-0.744499  0.002376  0.667619
			-0.601171 -0.093730  0.793605
			-0.958274  0.136177  0.251329
			-0.987015  0.148724  0.060692
			-0.895316  0.134871  0.424523
			-0.740633  0.144689  0.656146
			-0.917073 -0.003361  0.398706
			-0.615988  0.106739  0.780491
			-0.758596  0.017211  0.651334
			-0.926847  0.151192  0.343652
			-0.882138  0.129628  0.452802
			 0.015482  0.189205 -0.981815
			-0.068154  0.185353 -0.980306
			 0.806973  0.121611 -0.577932
			-0.688094  0.021228 -0.725311
			-0.157238  0.005423 -0.987546
			-0.219339  0.009335 -0.975604
			-0.450993  0.013849 -0.892420
			-0.859603 -0.019911 -0.510575
			 0.118415  0.012625 -0.992884
			 0.944856  0.060483 -0.321853
			 0.457050  0.063949 -0.887139
			 0.113824  0.195903 -0.973995
			 0.532853  0.329884 -0.779259
			 0.341623  0.277534 -0.897925
			 0.619898  0.149473 -0.770315
			 0.152486  0.267584 -0.951392
			 0.516638 -0.083564  0.852116
			 0.409102 -0.230857  0.882803
			 0.589292 -0.045060  0.806663
			 0.591385  0.030873  0.805798
			 0.883504 -0.000441  0.468424
			 0.779306  0.126056  0.613834
			 0.919716  0.145798  0.364507
			 0.630179  0.066358  0.773609
			 0.724179  0.170691  0.668153
			 0.771382  0.271121  0.575728
			 0.905041  0.334897  0.262194
			 0.877339  0.474609  0.070870
			 0.946846 -0.107699 -0.303123
			 0.956725  0.081913 -0.279227
			 0.992987  0.115253 -0.026347
			 0.911113  0.385924 -0.144692
			 0.928894  0.224935 -0.294210
			 0.768444 -0.099233 -0.632176
			 0.897704 -0.070835 -0.434868
			 0.342874 -0.020045 -0.939168
			 0.549107 -0.059996 -0.833596
			 0.214916  0.126321 -0.968429
			-0.230644 -0.234401  0.944383
			 0.597452 -0.204454  0.775403
			-0.664146 -0.087001  0.742523
			 0.286434 -0.208362  0.935169
			-0.965321 -0.020975 -0.260224
			-0.997212 -0.011950  0.073657
			-0.843283 -0.050896  0.535054
			-0.821029  0.109092  0.560366
			-0.522455  0.240824  0.817951
			-0.772321  0.218685  0.596404
			-0.426822  0.168331  0.888531
			-0.271162  0.193564  0.942870
			-0.252175  0.136061  0.958068
			-0.512793  0.074722  0.855254
			-0.505292  0.022111  0.862665
			 0.079776  0.209104 -0.974634
			-0.490009 -0.040869 -0.870759
			-0.698640 -0.070941 -0.711948
			 0.089806  0.002655 -0.995956
			-0.257116 -0.003898 -0.966373
			 0.092095 -0.000865 -0.995750
			-0.040511 -0.017426 -0.999027
			-0.313010 -0.027182 -0.949361
			-0.914772 -0.089600 -0.393910
			-0.782517 -0.135890 -0.607619
			 0.429853  0.011422 -0.902827
			 0.667326 -0.015694 -0.744600
			 0.725924  0.055398 -0.685540
			 0.334345  0.341388 -0.878446
			 0.297737  0.448052 -0.842973
			 0.522231  0.540413 -0.659719
			 0.700608  0.422020 -0.575367
			 0.857217  0.243460 -0.453769
			 0.280737 -0.096332  0.954938
			 0.458622  0.053374  0.887027
			 0.533666  0.044191  0.844540
			 0.437174  0.113293  0.892213
			 0.308549  0.221755  0.924998
			 0.792156 -0.082064  0.604776
			 0.977701 -0.047003  0.204675
			 0.900798 -0.089396  0.424938
			 0.738500  0.179120  0.650026
			 0.716602 -0.006862  0.697448
			 0.938729  0.341055  0.049696
			 0.995064  0.076436  0.063286
			 0.431529  0.195210  0.880725
			 0.593806  0.226394  0.772101
			 0.696522  0.299374  0.652098
			 0.824625  0.556267 -0.102764
			 0.833187  0.506414 -0.222135
			 0.687240  0.632976 -0.356431
			 0.794456  0.121127 -0.595120
			 0.683256  0.584676 -0.437396
			 0.719136  0.391820 -0.573865
			 0.715170  0.265509 -0.646558
			 0.513566  0.071611 -0.855056
			 0.422505  0.227016 -0.877470
			 0.781443 -0.138523  0.608406
			-0.500402 -0.163008  0.850309
			 0.827534 -0.086130  0.554769
			-0.718175  0.025582  0.695392
			-0.984742 -0.070792 -0.158969
			-0.984119 -0.095036  0.149924
			-0.477315 -0.097085  0.873352
			-0.730548 -0.145219  0.667242
			-0.883534 -0.134971  0.448499
			-0.799166  0.132148  0.586405
			-0.451427  0.356952  0.817801
			-0.309220  0.326360  0.893237
			-0.213938  0.230029  0.949377
			-0.537342  0.244813  0.807051
			 0.039985  0.209955  0.976893
			-0.014078  0.300239  0.953760
			 0.077428  0.188428  0.979030
			-0.171163  0.114565  0.978559
			-0.160141  0.017147  0.986945
			-0.265921 -0.088433 -0.959930
			-0.237494 -0.222498 -0.945564
			-0.468581 -0.114632 -0.875951
			-0.559272 -0.087756 -0.824326
			-0.611451 -0.180138 -0.770505
			 0.386702 -0.003644 -0.922197
			-0.068561 -0.064586 -0.995554
			 0.277391 -0.044642 -0.959719
			-0.860014 -0.195969 -0.471139
			-0.973783 -0.131553 -0.185580
			-0.705075 -0.309672 -0.637944
			 0.605973 -0.120840 -0.786253
			 0.813149 -0.123450 -0.568813
			 0.900575 -0.021218 -0.434183
			 0.440780  0.585538 -0.680337
			 0.520521  0.506623 -0.687307
			 0.918185  0.354671 -0.176478
			 0.966504  0.149568 -0.208564
			-0.040386 -0.087107  0.995380
			-0.230462  0.071077  0.970482
			-0.009116  0.108209  0.994086
			 0.161207  0.298132  0.940813
			-0.121510  0.295363  0.947626
			-0.053259  0.359183  0.931746
			 0.739096 -0.089695  0.667602
			 0.888172 -0.166644  0.428230
			 0.980477 -0.195274  0.023103
			 0.985929 -0.083435 -0.144853
			 0.655051  0.067055  0.752603
			 0.140804  0.332509  0.932530
			 0.458471  0.334053  0.823537
			 0.533874  0.308667  0.787212
			-0.183407 -0.071600  0.980426
			-0.601022  0.097964  0.793206
			-0.789899  0.112098  0.602905
			-0.981508 -0.190420  0.019556
			-0.959384 -0.125477  0.252663
			-0.127260 -0.084176  0.988291
			-0.275142 -0.170054  0.946245
			-0.521868 -0.143667  0.840841
			-0.688104 -0.182563  0.702270
			-0.874259 -0.251233  0.415395
			-0.622796  0.172109  0.763219
			-0.126519  0.365094  0.922334
			 0.307697  0.279768  0.909424
			 0.205441  0.154121  0.966458
			 0.293055  0.350943  0.889358
			 0.139568 -0.044220  0.989225
			 0.091509 -0.169443 -0.981282
			-0.452740 -0.275057 -0.848157
			 0.047272 -0.334099 -0.941352
			 0.066835 -0.239848 -0.968507
			-0.240035 -0.388947 -0.889440
			-0.093017 -0.390502 -0.915891
			-0.532017 -0.177508 -0.827918
			-0.576726 -0.321208 -0.751140
			-0.612729 -0.357281 -0.704921
			 0.452267 -0.083042 -0.888008
			 0.308985 -0.125684 -0.942726
			-0.846981 -0.311353 -0.430909
			-0.943544 -0.228999 -0.239341
			-0.631581 -0.430963 -0.644497
			-0.673450 -0.444864 -0.590391
			-0.760985 -0.394192 -0.515281
			-0.741212 -0.353692 -0.570532
			 0.856367 -0.244206 -0.454971
			 0.811233 -0.228582 -0.538193
			 0.436519 -0.133105 -0.889795
			 0.643978 -0.121273 -0.755371
			 0.922906 -0.197384 -0.330581
			 0.617286 -0.140630  0.774068
			 0.952122 -0.185105  0.243312
			 0.924611 -0.199009  0.324793
			 0.819489 -0.191201  0.540259
			 0.737908 -0.230457  0.634336
			 0.966843 -0.184170  0.176908
			 0.964896 -0.239986 -0.106689
			 0.411085 -0.015170  0.911471
			 0.441204  0.159663  0.883089
			-0.966956 -0.182620  0.177893
			-0.960749 -0.274270  0.041684
			-0.947953 -0.275941  0.158877
			-0.946836 -0.300635 -0.114544
			 0.061203 -0.115484  0.991422
			-0.355439 -0.309760  0.881880
			-0.653255 -0.285711  0.701161
			 0.136920 -0.211844  0.967665
			-0.640758 -0.663626  0.386044
			-0.780222 -0.525286  0.339600
			 0.390934 -0.115482  0.913145
			 0.384710 -0.225944 -0.894957
			-0.474251 -0.410911 -0.778613
			-0.385331 -0.477550 -0.789598
			-0.528759 -0.359548 -0.768856
			 0.367638 -0.376337 -0.850419
			 0.123363 -0.456208 -0.881281
			 0.034259 -0.520819 -0.852980
			-0.205390 -0.600016 -0.773172
			-0.603335 -0.404459 -0.687314
			-0.899566 -0.387537 -0.201487
			-0.812304 -0.391723 -0.432106
			-0.483881 -0.466419 -0.740481
			-0.646962 -0.434823 -0.626394
			-0.608550 -0.375557 -0.699017
			-0.590568 -0.417931 -0.690335
			-0.775260 -0.370625 -0.511478
			-0.780116 -0.368961 -0.505259
			-0.723154 -0.374045 -0.580637
			-0.757570 -0.428250 -0.492635
			-0.825523 -0.357044 -0.437071
			-0.837845 -0.176871 -0.516462
			-0.831405 -0.135684 -0.538847
			 0.916143 -0.264578 -0.301133
			 0.956342 -0.240351 -0.166256
			 0.883266 -0.174737 -0.435095
			 0.657533 -0.138458 -0.740594
			 0.561240 -0.145826 -0.814705
			 0.347410 -0.203525  0.915360
			 0.545331 -0.217379  0.809543
			 0.975979 -0.203365  0.078153
			 0.970337 -0.191495  0.147565
			 0.866192 -0.250244  0.432538
			 0.821841 -0.227718  0.522228
			 0.952167 -0.114803  0.283193
			 0.980115 -0.167164  0.106918
			 0.704692 -0.260794  0.659844
			-0.954973 -0.286678  0.076441
			-0.881884 -0.427262  0.199316
			-0.891811 -0.441672 -0.097978
			-0.635971 -0.405579  0.656541
			-0.176557 -0.407937  0.895776
			-0.392058 -0.382057  0.836853
			 0.378160 -0.143097  0.914614
			 0.189779 -0.289345  0.938224
			-0.503547 -0.831147  0.235871
			-0.585532 -0.764045  0.270901
			 0.638583 -0.219364 -0.737625
			 0.558243 -0.152043 -0.815627
			-0.529381 -0.477550 -0.701215
			-0.497536 -0.422241 -0.757740
			-0.228173 -0.550278 -0.803201
			-0.505417 -0.411912 -0.758210
			-0.404608 -0.484575 -0.775551
			-0.281780 -0.511019 -0.812071
			 0.270021 -0.509192 -0.817198
			 0.363772 -0.515563 -0.775799
			 0.529520 -0.380779 -0.758035
			 0.201055 -0.585979 -0.784987
			-0.030702 -0.659215 -0.751328
			-0.004668 -0.646894 -0.762566
			 0.005253 -0.727097 -0.686515
			 0.224160 -0.245384 -0.943154
			-0.551153 -0.181794 -0.814359
			-0.543210 -0.303757 -0.782722
			-0.867153 -0.432155 -0.247564
			-0.894936 -0.435013 -0.099263
			 0.751188 -0.308626 -0.583495
			-0.632374 -0.266640 -0.727328
			-0.676569 -0.317148 -0.664584
			-0.424517 -0.328014 -0.843915
			-0.548787 -0.125314 -0.826516
			-0.563156 -0.170302 -0.808612
			-0.834821 -0.180403 -0.520123
			-0.810289 -0.148410 -0.566926
			-0.711656 -0.294343 -0.637893
			-0.752553 -0.154896 -0.640056
			-0.844372 -0.079474 -0.529830
			-0.895153 -0.306543 -0.323624
			-0.910446 -0.348731 -0.222427
			-0.854184 -0.467483 -0.227660
			-0.927218 -0.104401 -0.359676
			-0.873996 -0.077052 -0.479786
			-0.886414  0.081432 -0.455675
			-0.873367  0.059809 -0.483378
			-0.876226  0.115206 -0.467927
			 0.849446 -0.165024 -0.501206
			 0.961619 -0.165403 -0.218929
			 0.795491 -0.159482 -0.584602
			 0.714048 -0.149032 -0.684050
			 0.475540 -0.270103  0.837202
			 0.853996 -0.219803  0.471569
			 0.962709 -0.147079  0.227064
			 0.950246 -0.061447  0.305381
			 0.984589 -0.000459  0.174886
			 0.904591 -0.068782  0.420695
			 0.975084 -0.140716 -0.171494
			 0.979063 -0.162095 -0.123127
			 0.980318 -0.181693  0.077233
			 0.766879 -0.228107  0.599886
			 0.606366 -0.298462  0.737049
			-0.689284 -0.686732  0.230841
			-0.783957 -0.614637  0.087367
			-0.660768 -0.599653  0.451444
			-0.870356 -0.486593 -0.075548
			-0.863655 -0.497448  0.081517
			-0.865987 -0.495391 -0.068225
			-0.854892 -0.515276 -0.060416
			-0.930293 -0.364349 -0.042471
			-0.956403 -0.289157 -0.041000
			-0.912641 -0.393310 -0.111327
			-0.502718 -0.512686  0.696008
			 0.067992 -0.367437  0.927560
			-0.379363 -0.605023  0.700022
			 0.103717 -0.417653  0.902668
			-0.049878 -0.566914  0.822266
			 0.340355 -0.370692  0.864144
			 0.895095 -0.170132 -0.412141
			 0.783551 -0.311794 -0.537431
			-0.452335 -0.314050 -0.834725
			-0.446020 -0.317949 -0.836645
			-0.609127 -0.431151 -0.665637
			-0.517482 -0.261047 -0.814903
			-0.512648 -0.251730 -0.820868
			 0.091916 -0.445628 -0.890487
			-0.173601 -0.440765 -0.880676
			-0.405210 -0.310935 -0.859723
			-0.380919 -0.168106 -0.909198
			-0.220706 -0.458795 -0.860695
			-0.030616 -0.338080 -0.940619
			 0.284157 -0.626884 -0.725446
			 0.497600 -0.576856 -0.647790
			 0.586049 -0.473251 -0.657709
			 0.495955 -0.570817 -0.654367
			 0.448719 -0.623039 -0.640683
			 0.154164 -0.679170 -0.717609
			 0.229659 -0.708593 -0.667198
			 0.438917 -0.561400 -0.701557
			 0.446078 -0.692238 -0.567293
			 0.439813 -0.689335 -0.575658
			-0.478223  0.051025 -0.876755
			-0.219871  0.036204 -0.974857
			 0.758134 -0.114935 -0.641890
			-0.334081 -0.055815 -0.940890
			-0.337437 -0.122819 -0.933302
			-0.663332 -0.074527 -0.744605
			-0.561309  0.012187 -0.827517
			-0.693562 -0.089519 -0.714814
			-0.508908 -0.069909 -0.857978
			-0.463360  0.099977 -0.880513
			-0.383709  0.197249 -0.902142
			-0.831990  0.090675 -0.547331
			-0.756555  0.085258 -0.648348
			-0.868200  0.163268 -0.468586
			-0.954823 -0.118374 -0.272583
			-0.985440 -0.167674 -0.028162
			-0.983883 -0.089502 -0.154802
			-0.902402  0.123275 -0.412886
			-0.939478  0.183974 -0.289025
			-0.887410  0.294238 -0.354862
			-0.873917  0.277135 -0.399331
			-0.825577  0.292589 -0.482509
			-0.878165  0.325467 -0.350568
			 0.909081 -0.147238 -0.389735
			 0.967792 -0.250662  0.023413
			 0.948626 -0.193229  0.250541
			 0.929577 -0.054208  0.364619
			 0.909868 -0.143483  0.389297
			 0.929997 -0.128812  0.344258
			 0.901414 -0.043484  0.430770
			 0.936709  0.007674  0.350025
			 0.995512  0.018648  0.092778
			 0.982195 -0.046654  0.181978
			 0.773887 -0.142803  0.617015
			 0.872961 -0.030672  0.486824
			 0.944371 -0.239738 -0.225142
			 0.689939 -0.265516  0.673413
			 0.546713 -0.347094  0.761991
			-0.734398 -0.629821  0.252954
			-0.552300 -0.702947  0.448141
			-0.518100 -0.815134  0.259092
			-0.704402 -0.693234  0.152457
			-0.803348 -0.595354  0.013641
			-0.826476 -0.562731  0.016433
			-0.803203 -0.575811  0.152664
			-0.924688 -0.378405 -0.041983
			-0.919213 -0.393749 -0.002975
			-0.957445 -0.269307  0.103788
			-0.853551 -0.517855 -0.057246
			-0.975635 -0.218018  0.024568
			-0.974350 -0.198633  0.105769
			-0.994075 -0.024829  0.105819
			-0.547742 -0.648477  0.528636
			-0.099202 -0.769872  0.630441
			-0.447835 -0.763372  0.465519
			 0.277070 -0.454677  0.846464
			 0.295351 -0.639997  0.709346
			 0.854804 -0.374563 -0.359184
			-0.345834 -0.016652 -0.938148
			-0.351756 -0.045904 -0.934965
			-0.467471 -0.267110 -0.842688
			-0.319224  0.188872 -0.928667
			-0.409397  0.060544 -0.910345
			 0.203371 -0.288328 -0.935685
			 0.454516 -0.310998 -0.834683
			-0.258295  0.037578 -0.965335
			-0.148009 -0.203706 -0.967780
			-0.198124  0.202567 -0.959017
			-0.034270 -0.334016 -0.941944
			 0.104869 -0.037660 -0.993773
			 0.091488 -0.192048 -0.977112
			 0.020277 -0.146278 -0.989036
			 0.181304 -0.177817 -0.967218
			 0.442687 -0.734804 -0.513898
			 0.756662 -0.476428 -0.447749
			 0.594929 -0.666184 -0.449731
			 0.781697 -0.449125 -0.432708
			 0.730984 -0.556293 -0.395222
			 0.709076 -0.592815 -0.381813
			 0.709565 -0.323495 -0.625994
			 0.728864 -0.526447 -0.437734
			 0.695254 -0.641700 -0.323795
			 0.652879 -0.675139 -0.343419
			-0.382858  0.132183 -0.914302
			-0.333236  0.283972 -0.899063
			-0.252701  0.052476 -0.966120
			-0.622282  0.199481 -0.756950
			-0.450297  0.347118 -0.822643
			-0.312400  0.467311 -0.827059
			-0.137119  0.555923 -0.819847
			-0.701847  0.254267 -0.665401
			-0.755688  0.318945 -0.572022
			-0.886400  0.297859 -0.354367
			-0.861734  0.360081 -0.357431
			-0.965154  0.128620 -0.227892
			-0.999820 -0.012907  0.013932
			-0.982302  0.162349 -0.093406
			-0.915786  0.388824 -0.100756
			-0.875431  0.445866 -0.186610
			-0.824807  0.519076 -0.224173
			-0.824614  0.533841 -0.187150
			-0.761602  0.541588 -0.355873
			-0.631460  0.595944 -0.496094
			-0.812546  0.545545 -0.205304
			 0.922342 -0.356829 -0.148184
			 0.953047 -0.258198  0.158225
			 0.899976 -0.167325  0.402550
			 0.895107 -0.204843  0.396009
			 0.893900 -0.001045  0.448266
			 0.931177 -0.034656  0.362917
			 0.956915  0.004576  0.290334
			 0.912504 -0.026506  0.408209
			 0.717180 -0.192217  0.669855
			 0.649913 -0.250122  0.717671
			 0.812378 -0.105904  0.573434
			 0.893815 -0.004532  0.448414
			 0.529751 -0.339052  0.777437
			-0.622665 -0.656119  0.426376
			-0.725172 -0.488347  0.485430
			-0.793335 -0.464428  0.393606
			-0.703466 -0.403940  0.584780
			-0.181540 -0.894259  0.409076
			-0.245936 -0.921514  0.300545
			-0.578433 -0.795264  0.181576
			-0.443804 -0.825049  0.349760
			-0.892751 -0.383538  0.236419
			-0.922089 -0.357603  0.147894
			-0.897306 -0.408298  0.167735
			-0.948476 -0.269070  0.167316
			-0.956242 -0.118204  0.267635
			-0.912001 -0.039655  0.408266
			-0.955930 -0.090191  0.279398
			-0.972710  0.055329  0.225330
			-0.971737  0.207461  0.112636
			-0.969201  0.187365  0.159826
			-0.945792  0.184477  0.267292
			 0.133485 -0.838350  0.528537
			-0.208002 -0.810514  0.547542
			 0.527359 -0.306557  0.792411
			 0.493694 -0.460640  0.737616
			 0.099658 -0.829131  0.550100
			 0.353884 -0.716179  0.601543
			 0.444668 -0.517185  0.731294
			-0.163469  0.300750 -0.939589
			-0.149103  0.387447 -0.909755
			-0.292135  0.223733 -0.929839
			 0.448110 -0.142700 -0.882516
			 0.672098 -0.118205 -0.730966
			-0.100874  0.348118 -0.932008
			-0.101624  0.165843 -0.980902
			-0.062244  0.347799 -0.935501
			-0.041161 -0.166538 -0.985175
			-0.045832  0.129360 -0.990538
			-0.033154  0.439115 -0.897819
			 0.162490  0.031995 -0.986191
			 0.183909  0.162335 -0.969446
			 0.191864  0.302188 -0.933740
			 0.068970  0.159485 -0.984788
			 0.316476  0.052358 -0.947155
			 0.892527 -0.405936 -0.196498
			 0.914119 -0.374254 -0.155949
			 0.898796 -0.382679 -0.213827
			 0.782003 -0.406448 -0.472517
			 0.900640 -0.398672 -0.172937
			 0.770090 -0.503772 -0.391376
			 0.713941 -0.671948 -0.196910
			 0.870385 -0.373587 -0.320722
			 0.789482 -0.071680 -0.609573
			 0.848429 -0.130579 -0.512950
			 0.790465 -0.573693 -0.214575
			 0.757484 -0.580887 -0.297973
			-0.187715  0.438466 -0.878926
			-0.457426  0.503090 -0.733255
			-0.282854  0.617726 -0.733763
			-0.048932  0.802689 -0.594388