<?xml version="1.0"?>
<VTKFile type="PolyData" version="0.1" byte_order="LittleEndian" compressor="vtkZLibDataCompressor">
	<PolyData>
		<Piece NumberOfPoints="3558" NumberOfVerts="0" NumberOfLines="0" NumberOfStrips="0" NumberOfPolys="7126">
		<PointData Normals="Normals">
		<DataArray type="Float32" Name="Normals" NumberOfComponents="3" format="ascii">
			-0.993728  0.111804  0.002227
			-0.994519  0.101499 -0.025116
			-0.980418 -0.054782  0.189152
			-0.982702  0.031659  0.182467
			-0.985973  0.128389 -0.106645
			-0.979894  0.133004  0.148721
			-0.934056  0.062279  0.351653
			-0.950363 -0.150685  0.272220
			-0.972825  0.206407 -0.104913
			-0.996147  0.056180 -0.067346
			-0.964457 -0.206261  0.165164
			-0.982369  0.184477 -0.030326
			-0.806880 -0.369106  0.461200
			-0.918651 -0.164858  0.359030
			-0.905331 -0.063103  0.419994
			-0.930340  0.026374  0.365749
			-0.987512  0.155456 -0.025556
			-0.996368  0.048853  0.069739
			-0.993446  0.002901 -0.114269
			-0.977527  0.115679 -0.176237
			-0.829043  0.060190  0.555937
			-0.916140  0.053698  0.397246
			-0.775839 -0.051111  0.628857
			-0.815748 -0.059133  0.575377
			-0.705770 -0.013337  0.708315
			-0.884609 -0.321828  0.337480
			-0.973883  0.223067  0.042342
			-0.939414  0.330257 -0.091827
			-0.953819 -0.237205  0.184292
			-0.800313 -0.526867  0.286198
			-0.714946 -0.576084  0.396206
			-0.976225  0.213392  0.038061
			-0.992630  0.040311  0.114279
			-0.614749 -0.472159  0.631783
			-0.397515 -0.725177  0.562228
			-0.766599 -0.234128  0.597922
			-0.763173 -0.134614  0.632017
			-0.820851 -0.044544  0.569403
			-0.958820  0.276355 -0.065519
			-0.943928  0.207898 -0.256472
			-0.997450 -0.049175  0.051720
			-0.951812 -0.031732  0.305035
			-0.979546 -0.083604 -0.183030
			-0.999386 -0.035029 -0.000295
			-0.978716 -0.017020 -0.204512
			-0.973569  0.059755 -0.220438
			-0.954745  0.099506 -0.280287
			-0.755708  0.008709  0.654851
			-0.548749 -0.024767  0.835620
			-0.810898 -0.025566  0.584629
			-0.582821 -0.162627  0.796161
			-0.581348 -0.113395  0.805715
			-0.586280 -0.202058  0.784505
			-0.353168 -0.097824  0.930432
			-0.956989  0.281366 -0.070749
			-0.576456 -0.691362  0.435565
			-0.893730 -0.255082  0.369026
			-0.705961 -0.644857  0.292881
			-0.557250 -0.761231  0.331663
			-0.365830 -0.819109  0.441847
			-0.991503  0.128034 -0.022983
			-0.961856  0.126547  0.242525
			-0.212751 -0.728526  0.651143
			-0.381748 -0.578948  0.720477
			-0.575415 -0.357773  0.735456
			-0.213684 -0.847723  0.485496
			-0.169711 -0.815144  0.553839
			-0.912492  0.314789 -0.261280
			-0.969368  0.124154 -0.211925
			-0.972936  0.146651 -0.178572
			-0.956054  0.272268 -0.108772
			-0.992661  0.116381 -0.032848
			-0.893264  0.287449 -0.345619
			-0.872115  0.218567 -0.437771
			-0.956119 -0.033307  0.291078
			-0.821810 -0.019400  0.569432
			-0.975625 -0.150465 -0.159737
			-0.966454 -0.088754 -0.241017
			-0.961665 -0.143703 -0.233559
			-0.953733 -0.166064 -0.250631
			-0.990812 -0.131737 -0.030624
			-0.996949 -0.028673  0.072603
			-0.958925  0.012391  0.283387
			-0.946647 -0.049000 -0.318526
			-0.945553  0.045484 -0.322274
			-0.893995  0.131393 -0.428379
			-0.792891  0.161698 -0.587518
			-0.847328  0.093523 -0.522770
			-0.572826 -0.017748  0.819485
			-0.230604 -0.063046  0.971003
			-0.603103 -0.002887  0.797658
			-0.404875 -0.210653  0.889776
			-0.402876 -0.158725  0.901386
			-0.450587 -0.386662  0.804651
			-0.330705 -0.283950  0.900003
			-0.195024 -0.069622  0.978324
			-0.404888 -0.776699  0.482497
			-0.053211 -0.826748  0.560050
			-0.105555 -0.960063  0.259107
			-0.308170 -0.877303  0.367929
			-0.646460 -0.673715  0.358045
			-0.859367 -0.442437  0.256394
			-0.949204 -0.103099  0.297291
			-0.985854 -0.136483  0.097279
			-0.996603  0.005086  0.082202
			-0.253717 -0.753437  0.606598
			-0.373279 -0.723608  0.580564
			-0.330926 -0.678510  0.655830
			-0.199234 -0.546596  0.813350
			-0.156321 -0.951583  0.264677
			-0.467008 -0.756438  0.457936
			-0.921122  0.219476 -0.321504
			-0.891093  0.279055 -0.357886
			-0.928348 -0.220041 -0.299587
			-0.892707 -0.428931 -0.138174
			-0.966160 -0.201851 -0.160593
			-0.987103  0.089554 -0.132696
			-0.991528 -0.129668  0.007657
			-0.961521 -0.240565  0.132689
			-0.861922  0.253879 -0.438904
			-0.782733  0.179032 -0.596051
			-0.704553  0.159975 -0.691385
			-0.679815  0.212035 -0.702063
			-0.814561  0.024379  0.579565
			-0.608819  0.041554  0.792220
			-0.957297 -0.271006 -0.100687
			-0.901535 -0.360043 -0.240007
			-0.958062 -0.153014 -0.242288
			-0.948686 -0.151447 -0.277596
			-0.942232 -0.135337 -0.306402
			-0.960670 -0.053581 -0.272475
			-0.933770 -0.060410 -0.352739
			-0.970462 -0.241171  0.006323
			-0.982625 -0.012265  0.185197
			-0.940919 -0.205540  0.269117
			-0.869109  0.106434  0.483033
			-0.801640  0.086776  0.591475
			-0.898054 -0.009838 -0.439775
			-0.820277  0.021414 -0.571566
			-0.926056 -0.130752 -0.354012
			-0.941602 -0.137748 -0.307265
			-0.926766 -0.009557 -0.375516
			-0.924496  0.041006 -0.378980
			-0.752548  0.183720 -0.632391
			-0.689855  0.176047 -0.702216
			-0.850175  0.055687 -0.523547
			-0.872094  0.021040 -0.488886
			-0.841604  0.046963 -0.538049
			-0.288582 -0.008358  0.957419
			 0.011439 -0.066045  0.997751
			-0.385602  0.043068  0.921660
			-0.083870 -0.442037  0.893067
			-0.243968 -0.157818  0.956856
			-0.381041 -0.074897  0.921519
			-0.272161  0.073295  0.959456
			 0.003675  0.023560  0.999716
			-0.287980 -0.947659  0.137873
			 0.346135 -0.905839  0.244226
			 0.214379 -0.941195  0.261141
			 0.134519 -0.726785  0.673564
			 0.015737 -0.937807  0.346801
			-0.757695 -0.648153  0.076130
			-0.900000 -0.435865  0.004676
			-0.486255 -0.688332  0.538289
			-0.072169 -0.675010  0.734271
			-0.227594 -0.745621  0.626299
			-0.396729 -0.787536  0.471587
			-0.020105 -0.556352  0.830703
			-0.260024 -0.959176  0.111212
			-0.356387 -0.815521  0.455976
			-0.601325 -0.712370  0.361852
			-0.541093 -0.800924  0.256396
			-0.894625  0.229196 -0.383556
			-0.888625  0.062956 -0.454293
			-0.900474 -0.119810 -0.418082
			-0.784478 -0.016500 -0.619937
			-0.878649  0.083518 -0.470107
			-0.701595 -0.511184 -0.496444
			-0.580036 -0.746680 -0.325618
			-0.440602 -0.887888 -0.132379
			-0.618105  0.091897 -0.780705
			-0.529268 -0.077124 -0.844942
			-0.498129 -0.011259 -0.867030
			-0.707600  0.035956 -0.705698
			-0.570168  0.107998  0.814398
			-0.341872  0.141720  0.928999
			-0.931814 -0.344747  0.113457
			-0.969562 -0.203483  0.136176
			-0.941454 -0.200478 -0.271060
			-0.891555 -0.301909 -0.337611
			-0.920143 -0.134373 -0.367806
			-0.930963 -0.355828 -0.081824
			-0.932839 -0.350537 -0.083279
			 0.243088 -0.745379 -0.620740
			-0.898865 -0.319802 -0.299614
			-0.763380 -0.555355 -0.329897
			-0.949596  0.187369 -0.251316
			-0.953226 -0.053635 -0.297463
			-0.965691  0.075618 -0.248442
			-0.918422  0.130856 -0.373333
			-0.931447  0.041738 -0.361474
			-0.881504 -0.044547 -0.470071
			-0.894165  0.137668 -0.426048
			-0.819229  0.122264 -0.560282
			-0.818232  0.225184 -0.528950
			-0.893752 -0.107059  0.435599
			-0.617761  0.128118  0.775859
			-0.705561 -0.124851  0.697564
			-0.304291  0.439043  0.845369
			-0.256413  0.339608  0.904941
			-0.576718  0.253045  0.776766
			-0.910826 -0.039627 -0.410884
			-0.828574 -0.113483 -0.548258
			-0.751578  0.096798 -0.652504
			-0.780067  0.010732 -0.625603
			-0.770834 -0.066947 -0.633508
			-0.687217  0.135115 -0.713776
			-0.813956  0.040600 -0.579505
			-0.775289 -0.139549 -0.615998
			-0.737570 -0.052563 -0.673222
			-0.796103  0.049886 -0.603101
			-0.206822  0.067574  0.976042
			 0.023442 -0.062417  0.997775
			-0.132364 -0.135705  0.981868
			-0.224722 -0.048583  0.973211
			 0.067302 -0.513860  0.855230
			-0.004165 -0.429036  0.903278
			-0.134826 -0.301498  0.943886
			-0.344151 -0.060038  0.936993
			-0.439167  0.094799  0.893390
			-0.243503  0.208758  0.947168
			-0.128544  0.200785  0.971165
			 0.118425 -0.992953  0.004475
			 0.278954 -0.958480  0.059160
			 0.510184 -0.833508  0.212074
			 0.805076 -0.577448  0.135672
			 0.895822 -0.442916 -0.036442
			 0.597139 -0.743462  0.301147
			 0.648156 -0.749693  0.133619
			-0.181346 -0.860950  0.475266
			-0.090720 -0.820235  0.564787
			 0.115583 -0.580282  0.806172
			-0.387430 -0.858422  0.336169
			-0.590951 -0.775067  0.223716
			 0.005744 -0.868336 -0.495944
			-0.290399 -0.923429 -0.250893
			 0.109534 -0.867368 -0.485464
			-0.583488 -0.811003 -0.042607
			-0.774666 -0.261486 -0.575775
			-0.472778 -0.089941 -0.876579
			-0.391048 -0.440940 -0.807870
			-0.561596 -0.394404 -0.727362
			-0.212951 -0.872256 -0.440252
			-0.404089 -0.657385 -0.636048
			-0.048610 -0.978260 -0.201602
			-0.242176 -0.358500 -0.901570
			-0.234703 -0.400160 -0.885882
			-0.307542 -0.223838 -0.924832
			-0.554340 -0.130661 -0.821970
			-0.395399 -0.234354 -0.888109
			-0.638030 -0.106190 -0.762654
			-0.218723  0.396252  0.891709
			-0.249194  0.257557  0.933577
			-0.951868 -0.277126  0.130953
			-0.768068  0.002292  0.640364
			-0.833788 -0.204313  0.512888
			-0.960790  0.009045 -0.277128
			-0.903726 -0.136792 -0.405669
			-0.917365 -0.249989 -0.309753
			-0.883522  0.203736 -0.421759
			-0.914230  0.283044 -0.289949
			-0.908225 -0.359651 -0.213959
			-0.996134 -0.083628  0.026889
			-0.968293 -0.028277  0.248213
			-0.949591 -0.146181  0.277323
			-0.883717 -0.336707 -0.325073
			 0.804900 -0.470187 -0.362023
			 0.984831 -0.124940 -0.120407
			-0.922507  0.219775 -0.317301
			-0.673138  0.725356 -0.144026
			-0.734030  0.632369 -0.247607
			-0.885502  0.412873 -0.213123
			-0.854348  0.426706 -0.296667
			-0.859329  0.411093 -0.304229
			-0.888198  0.257579 -0.380471
			-0.792818  0.090913 -0.602639
			-0.825057  0.341844 -0.449914
			-0.710998  0.236561 -0.662210
			-0.632422  0.373178 -0.678808
			-0.622958  0.522897 -0.581809
			-0.450182  0.155182  0.879349
			-0.336598  0.162270  0.927562
			 0.106662  0.394150  0.912836
			 0.285011  0.503928  0.815368
			-0.000322  0.685075  0.728472
			 0.397148  0.646077  0.651811
			-0.664860 -0.222418 -0.713086
			-0.674735 -0.140381 -0.724586
			-0.501901 -0.260620 -0.824726
			-0.746041  0.045445 -0.664348
			-0.511689 -0.006856 -0.859143
			-0.692767 -0.043662 -0.719839
			-0.547888  0.065364 -0.833994
			-0.550949 -0.102170 -0.828261
			-0.503912 -0.130326 -0.853867
			-0.701122  0.134634 -0.700215
			-0.713875  0.099682 -0.693142
			-0.675158  0.129508 -0.726216
			-0.700165  0.185292 -0.689518
			-0.511099 -0.189216 -0.838436
			-0.405658 -0.279902 -0.870113
			-0.621220 -0.306270 -0.721308
			-0.587921 -0.334735 -0.736411
			-0.266443  0.053855  0.962345
			-0.071077  0.162657  0.984119
			-0.300218  0.166790  0.939175
			-0.483182  0.006325  0.875497
			-0.417019 -0.106156  0.902677
			-0.438247 -0.156592  0.885110
			-0.440555 -0.227655  0.868380
			-0.232563 -0.018943  0.972397
			-0.337803  0.012959  0.941128
			 0.190129 -0.473013  0.860296
			 0.095103 -0.434669  0.895555
			 0.005876 -0.248444  0.968629
			-0.275061 -0.108896  0.955240
			-0.477481  0.047322  0.877367
			-0.563936  0.117666  0.817393
			-0.508454  0.267084  0.818622
			-0.581897  0.326297  0.744934
			 0.376073 -0.917667  0.128283
			 0.307954 -0.950089 -0.049952
			 0.549872 -0.780565  0.297253
			 0.696681 -0.576943  0.426347
			 0.558244 -0.750478  0.353760
			 0.229653 -0.860791  0.454200
			 0.839264 -0.532674  0.109067
			 0.208504 -0.965702 -0.154744
			-0.219519 -0.926956  0.304243
			-0.243611 -0.913706  0.325260
			-0.119997 -0.914851  0.385549
			-0.114362 -0.924840  0.362757
			-0.037301 -0.774879  0.631008
			 0.147065 -0.642330  0.752186
			 0.266093 -0.495115  0.827077
			 0.195090 -0.509544  0.838036
			-0.479418 -0.857854  0.185055
			 0.098920 -0.736498 -0.669167
			 0.389139 -0.881677 -0.266864
			 0.012421 -0.961406 -0.274855
			-0.315311 -0.715705 -0.623174
			-0.704514 -0.585266 -0.401403
			-0.543734 -0.839147  0.013656
			 0.011026 -0.727356 -0.686172
			-0.077883 -0.711237 -0.698624
			 0.221951 -0.927298 -0.301424
			 0.153904 -0.844024 -0.513748
			-0.056260 -0.682303 -0.728901
			-0.161666 -0.513899 -0.842480
			-0.270012 -0.389804 -0.880424
			-0.396963 -0.330159 -0.856397
			-0.324152 -0.437867 -0.838569
			 0.027817  0.819376  0.572581
			-0.212950  0.618556  0.756333
			-0.633189  0.374420  0.677408
			-0.721106  0.174986  0.670363
			-0.217382  0.334443  0.917002
			-0.895609  0.270780 -0.352934
			-0.975311  0.034504 -0.218123
			-0.979499 -0.108073 -0.170008
			-0.570371  0.801585 -0.179270
			-0.753031  0.626460 -0.201225
			-0.984559 -0.121063 -0.126444
			-0.925242  0.303829  0.227191
			-0.907854  0.234704  0.347441
			-0.693766  0.285435  0.661223
			-0.016865  0.994189 -0.106315
			-0.441847  0.895880  0.046577
			 0.075555  0.990115  0.118170
			-0.603768  0.797110 -0.008949
			-0.107649  0.993660  0.032414
			-0.775546  0.625089 -0.088279
			-0.819241  0.458300 -0.344682
			-0.698586  0.683770 -0.210800
			-0.661304  0.253612 -0.705945
			-0.667328  0.620600 -0.411739
			-0.532658  0.409348 -0.740749
			-0.329801  0.636732 -0.696996
			-0.465417  0.718094 -0.517425
			 0.192689  0.267252  0.944165
			 0.286129  0.388429  0.875930
			 0.653334  0.349233  0.671708
			 0.512117  0.509884  0.691197
			 0.492469  0.833285  0.251216
			 0.706602  0.477757  0.521979
			 0.641926  0.427939  0.636238
			-0.424388 -0.353983 -0.833421
			-0.358208 -0.315796 -0.878613
			-0.188247 -0.210177 -0.959369
			-0.200724 -0.309418 -0.929500
			-0.395225  0.110843 -0.911872
			-0.624838  0.053655 -0.778909
			-0.201347 -0.091959 -0.975194
			-0.261283 -0.002563 -0.965259
			-0.243441  0.062091 -0.967926
			-0.548263  0.206088 -0.810516
			-0.480070  0.296989 -0.825427
			-0.504650  0.162163 -0.847958
			-0.419660  0.255305 -0.871037
			-0.446922  0.404339 -0.797979
			-0.209396 -0.318432 -0.924529
			-0.022513 -0.437757 -0.898811
			-0.208562 -0.484233 -0.849718
			-0.385351 -0.416685 -0.823333
			 0.574899  0.035130  0.817470
			 0.942810  0.074680  0.324858
			-0.100031  0.135469  0.985719
			-0.328870  0.162876  0.930223
			-0.256271  0.328221  0.909173
			-0.521344  0.351238  0.777710
			-0.402676  0.454461  0.794555
			-0.661438  0.022820  0.749653
			-0.734197  0.140892  0.664157
			-0.431389 -0.102116  0.896368
			-0.549363 -0.108259  0.828541
			-0.609232 -0.122831  0.783422
			-0.464902  0.019273  0.885152
			 0.565520  0.084900  0.820353
			 0.257432 -0.450444  0.854886
			 0.202168 -0.332075  0.921333
			 0.189937 -0.312863  0.930613
			 0.141856 -0.189875  0.971506
			-0.015366 -0.170486  0.985240
			-0.195346 -0.092291  0.976382
			-0.566185  0.100423  0.818138
			-0.554395 -0.043782  0.831102
			-0.625193  0.014916  0.780328
			 0.248175 -0.968603  0.014760
			 0.194429 -0.871458  0.450288
			 0.363882 -0.885689 -0.288350
			-0.118519 -0.859594  0.497042
			-0.133239 -0.747725  0.650504
			-0.073607 -0.979908  0.185373
			-0.254984 -0.929534  0.266364
			-0.527925 -0.848656  0.032836
			-0.062242 -0.982319  0.176563
			-0.286082 -0.952647  0.103058
			-0.278386 -0.959780  0.036392
			-0.131649 -0.977438  0.165177
			 0.061558 -0.831138  0.552649
			-0.112279 -0.962630  0.246449
			-0.078423 -0.968983  0.234355
			 0.310815 -0.621812  0.718848
			 0.472909 -0.501394  0.724542
			 0.444704 -0.412364  0.795107
			-0.071458 -0.269467 -0.960355
			 0.055579 -0.856041  0.513912
			 0.987726 -0.152375 -0.034347
			-0.176614 -0.806326  0.564488
			 0.653296  0.369007 -0.661088
			-0.713415 -0.554855 -0.427989
			 0.166665 -0.854248 -0.492426
			 0.227919 -0.823714 -0.519180
			-0.069850 -0.775165 -0.627885
			-0.232840 -0.571497 -0.786878
			-0.209759 -0.545431 -0.811484
			-0.114342 -0.478300 -0.870721
			 0.067767  0.997161 -0.032830
			-0.813342  0.564175  0.142061
			-0.103107  0.378223  0.919954
			 0.460145  0.418343  0.783106
			-0.851422  0.440578 -0.284555
			-0.500934  0.841384 -0.202824
			-0.809302  0.587218  0.014346
			-0.944064  0.316184  0.093654
			-0.193092  0.980991  0.019281
			 0.135943  0.987844  0.075390
			 0.121246  0.992037  0.034085
			-0.674604  0.625275  0.392352
			-0.617818  0.513455  0.595538
			-0.119615  0.468243  0.875466
			 0.253210  0.962132  0.100924
			 0.361997  0.928689  0.080594
			 0.110266  0.964942  0.238179
			 0.316666  0.915124  0.249540
			-0.618723  0.682450  0.389159
			-0.239717  0.878668  0.412891
			 0.020490  0.928086  0.371801
			-0.454724  0.878757  0.144956
			-0.444007  0.888482 -0.116011
			-0.517051  0.798972 -0.307086
			-0.161625  0.577263 -0.800403
			-0.091715  0.772188 -0.628740
			-0.321550  0.876403 -0.358501
			-0.214542  0.809548 -0.546447
			 0.727912  0.278705  0.626472
			 0.742660  0.352431  0.569429
			 0.906223  0.421658  0.031040
			 0.403594  0.337530  0.850403
			 0.645726  0.288878  0.706815
			 0.645328  0.472434  0.600298
			 0.854285  0.294990  0.427993
			-0.138993 -0.458264 -0.877881
			-0.211654 -0.363110 -0.907389
			 0.081681 -0.219610 -0.972163
			 0.101269 -0.117410 -0.987907
			 0.110909 -0.281640 -0.953089
			-0.084166  0.094369 -0.991973
			-0.051049  0.198778 -0.978714
			-0.254987  0.270016 -0.928479
			 0.002783 -0.026352 -0.999649
			-0.229044  0.359745 -0.904501
			-0.208098  0.434958 -0.876074
			-0.196179  0.341651 -0.919124
			 0.113074 -0.451828 -0.884910
			 0.260996 -0.469683 -0.843374
			 0.279276 -0.444846 -0.850951
			 0.099551 -0.504882 -0.857429
			 0.151333 -0.561309 -0.813653
			-0.087134 -0.532467 -0.841954
			-0.489619  0.203451  0.847868
			-0.480064  0.294561  0.826300
			-0.292678  0.420333  0.858871
			-0.682038  0.642717  0.348911
			-0.368168 -0.084259  0.925933
			-0.610695 -0.067519  0.788982
			-0.128343 -0.067445  0.989434
			-0.552808 -0.131826  0.822816
			-0.047326 -0.135206  0.989687
			-0.358475 -0.199553  0.911962
			-0.704580  0.068650  0.706296
			 0.387683 -0.299578  0.871754
			 0.196451 -0.211363  0.957462
			 0.127473 -0.125685  0.983846
			 0.142014 -0.139890  0.979930
			 0.093284 -0.169451  0.981114
			-0.018444 -0.998683  0.047873
			 0.112242 -0.957710 -0.264940
			-0.085471 -0.897365  0.432933
			-0.295211 -0.955415  0.005684
			-0.249249 -0.961689 -0.114149
			-0.434678 -0.841741 -0.320198
			 0.091502 -0.995687  0.015291
			-0.104838 -0.992815 -0.057680
			-0.315755 -0.947325 -0.053603
			-0.258702 -0.965621 -0.025487
			-0.397079 -0.845151 -0.357838
			-0.329240 -0.878387 -0.346463
			-0.319097 -0.929627 -0.184313
			 0.118266 -0.853321  0.507795
			-0.092829 -0.974479  0.204386
			-0.210288 -0.962825 -0.169547
			 0.468141 -0.704262  0.533722
			 0.532208 -0.560883  0.634165
			 0.623764 -0.426629  0.654910
			 0.652189 -0.498190  0.571363
			 0.622999 -0.505897  0.596607
			 0.572395 -0.324797  0.752908
			 0.511375 -0.256629  0.820144
			 0.423180  0.681221 -0.597375
			-0.776924 -0.314781 -0.545254
			 0.519270 -0.569596  0.637118
			-0.021528 -0.879238  0.475896
			 0.839710  0.456027 -0.294834
			 0.858302 -0.200929  0.472171
			 0.984087  0.169022  0.054819
			-0.097410 -0.945022  0.312161
			 0.696889  0.571536 -0.433235
			 0.506596  0.645988 -0.571017
			-0.509354 -0.622860 -0.593805
			 0.043078 -0.897669 -0.438560
			-0.129429 -0.784847 -0.606023
			 0.019350 -0.678511 -0.734335
			 0.948754  0.275489 -0.154826
			 0.346006  0.127519 -0.929526
			-0.468134  0.238780 -0.850785
			 0.264811  0.405250  0.875013
			 0.408190  0.278315  0.869438
			-0.655806  0.753138 -0.051978
			-0.178343  0.978469  0.103884
			-0.246377  0.937668  0.245105
			-0.638432  0.718077  0.277073
			 0.277862  0.932223  0.231848
			 0.246547  0.967329 -0.059069
			 0.418333  0.897031  0.142591
			 0.177630  0.968725  0.173259
			-0.210346  0.908291  0.361611
			-0.257639  0.810264  0.526398
			-0.147873  0.636691  0.756808
			 0.168681  0.514837  0.840529
			-0.351183  0.821252  0.449684
			-0.130594  0.949082  0.286686
			 0.015639  0.910498  0.413217
			 0.374325  0.871944  0.315585
			-0.577866  0.672779  0.461995
			-0.613892  0.411755  0.673494
			-0.491117  0.599511  0.631973
			-0.265898  0.963433 -0.033105
			-0.381714  0.922354  0.059652
			-0.130216  0.720132 -0.681508
			-0.008619  0.446635 -0.894675
			-0.159115  0.870448 -0.465836
			-0.263194  0.905240 -0.333572
			-0.354740  0.932809 -0.063462
			 0.640000  0.261084  0.722658
			 0.413685  0.017038  0.910261
			 0.441263  0.248091  0.862402
			 0.396025  0.151387  0.905674
			 0.959253  0.174319  0.222368
			 0.266583  0.060978  0.961881
			 0.000361  0.093507  0.995618
			 0.001965  0.049832  0.998756
			 0.434642  0.140796  0.889530
			 0.621434  0.112002  0.775420
			 0.765509  0.240264  0.596882
			 0.815393  0.066474  0.575079
			 0.075955 -0.428859 -0.900173
			 0.269947 -0.305009 -0.913290
			 0.178547 -0.064471 -0.981817
			 0.230515 -0.099227 -0.967996
			 0.274882 -0.358553 -0.892121
			 0.183943 -0.264684 -0.946629
			 0.121844  0.044154 -0.991567
			 0.167655  0.235049 -0.957415
			 0.206433  0.081773 -0.975038
			-0.027455  0.340426 -0.939870
			 0.229459 -0.515931 -0.825326
			 0.199683 -0.426401 -0.882219
			 0.345374 -0.461756 -0.817006
			 0.340507 -0.426166 -0.838116
			 0.229581 -0.458119 -0.858731
			 0.148966 -0.568527 -0.809065
			 0.294067 -0.479273 -0.826935
			-0.775910  0.174155  0.606328
			-0.493357  0.204285  0.845498
			-0.727786  0.228776  0.646521
			-0.518807  0.290751  0.803929
			-0.610537  0.790800 -0.043348
			 0.053421  0.989585 -0.133667
			-0.629964 -0.015512  0.776470
			-0.491452 -0.066098  0.868393
			 0.097869 -0.080800  0.991914
			-0.280847 -0.116387  0.952669
			 0.058180 -0.105414  0.992725
			-0.766354  0.023155  0.642001
			 0.434090 -0.190351  0.880530
			 0.299219 -0.135243  0.944551
			 0.021858 -0.997225 -0.071166
			 0.357983 -0.917425  0.173721
			-0.056020 -0.910888 -0.408833
			 0.023172 -0.998715  0.045073
			-0.450695 -0.706753 -0.545320
			 0.426017 -0.764399 -0.483946
			-0.006381 -0.984356  0.176078
			-0.466951 -0.884283 -0.000695
			-0.271617 -0.920218 -0.281822
			-0.406076 -0.405389 -0.819001
			-0.330474 -0.736176 -0.590620
			-0.409559 -0.633680 -0.656286
			-0.542586 -0.774847 -0.324366
			 0.224078 -0.901125  0.371164
			 0.150639 -0.972565  0.177270
			-0.166495 -0.985061 -0.043983
			-0.377431 -0.567674 -0.731637
			-0.371058 -0.848851 -0.376520
			 0.467160 -0.817038  0.337950
			 0.405613 -0.841969  0.355762
			 0.621832 -0.621253  0.476833
			 0.735647 -0.434426  0.519709
			 0.724293 -0.322903  0.609206
			 0.765135 -0.439689  0.470365
			 0.753326 -0.449060  0.480463
			 0.637063 -0.594787  0.490284
			 0.684554 -0.532401  0.497931
			 0.553258 -0.258064  0.792028
			 0.477861 -0.234632  0.846520
			-0.190694  0.858307 -0.476387
			-0.610684  0.727132 -0.313598
			 0.200798  0.888827 -0.411906
			-0.480631 -0.582782 -0.655255
			-0.856589  0.150290 -0.493627
			 0.509603 -0.519293  0.686031
			 0.543452 -0.217182  0.810859
			 0.098383 -0.933166  0.345720
			 0.925477  0.300670 -0.230415
			 0.829412  0.432767 -0.353255
			 0.915791  0.256617  0.308989
			 0.263015 -0.671809  0.692457
			 0.015406 -0.365233  0.930789
			 0.731456 -0.271943  0.625316
			 0.440394  0.656316 -0.612619
			 0.363604  0.701087 -0.613408
			-0.390578 -0.483256 -0.783525
			 0.124572 -0.886718 -0.445211
			 0.197584 -0.660831 -0.724060
			 0.926146  0.183814  0.329340
			 0.914341  0.257409  0.312603
			 0.937981  0.168481 -0.302995
			 0.069151  0.071738 -0.995023
			 0.481898  0.099045 -0.870612
			-0.021087 -0.103745 -0.994380
			-0.175497 -0.369041 -0.912694
			-0.186484  0.249160 -0.950338
			-0.351861 -0.089200 -0.931793
			 0.109032  0.131626  0.985285
			 0.093030  0.424383  0.900691
			 0.140448  0.970378  0.196571
			 0.556463  0.828144  0.067279
			 0.545688  0.759463 -0.354175
			 0.098239  0.961442 -0.256864
			 0.007956  0.999967 -0.001721
			 0.412283  0.778221  0.473704
			 0.067744  0.940176  0.333884
			 0.056731  0.824044  0.563678
			 0.033144  0.785546  0.617915
			-0.682845  0.432582  0.588723
			-0.656741  0.610926  0.442109
			-0.506524  0.812311  0.289110
			-0.747784  0.490438  0.447536
			-0.236355  0.662312  0.710971
			-0.459711  0.839985  0.288256
			-0.662045  0.592151  0.459406
			-0.095297  0.622841 -0.776523
			-0.279460  0.689406 -0.668297
			-0.333043  0.802104 -0.495693
			 0.179525  0.313598 -0.932431
			 0.099564  0.293762 -0.950679
			 0.152516  0.286273 -0.945932
			 0.102604  0.450012 -0.887109
			 0.118487  0.377029 -0.918591
			 0.007763  0.496063 -0.868252
			-0.430065  0.885658 -0.175083
			-0.429953  0.885263 -0.177340
			-0.562953  0.817403  0.122212
			-0.479903  0.877021 -0.022966
			 0.065452 -0.179949  0.981496
			-0.043894  0.006440  0.999015
			-0.006963 -0.025995  0.999638
			 0.380067 -0.349075  0.856561
			 0.811417 -0.462051  0.357926
			 0.841601 -0.018801  0.539772
			 0.204571  0.014559  0.978743
			-0.115345 -0.015552  0.993204
			 0.082883  0.081181  0.993247
			 0.582143 -0.138452  0.801212
			 0.685622  0.065590  0.724997
			 0.249617 -0.378121 -0.891469
			 0.251499 -0.291850 -0.922806
			 0.241009 -0.056483 -0.968878
			 0.136441 -0.469344 -0.872411
			 0.096113 -0.060279 -0.993544
			-0.007704 -0.338365 -0.940983
			 0.138515 -0.089769 -0.986283
			 0.015836 -0.373490 -0.927499
			 0.204403  0.116371 -0.971945
			-0.141699 -0.400461 -0.905292
			-0.017112 -0.477525 -0.878452
			 0.147481 -0.421343 -0.894829
			 0.119056 -0.415961 -0.901555
			 0.106838 -0.629390 -0.769710
			-0.125270 -0.624896 -0.770592
			-0.077578 -0.404215 -0.911368
			-0.086603 -0.557060 -0.825944
			-0.892236  0.127042  0.433330
			-0.689201  0.172076  0.703841
			-0.903780  0.218430  0.368062
			-0.829760  0.263243  0.492140
			-0.106645  0.021652 -0.994061
			-0.755037  0.234496 -0.612316
			-0.543639 -0.044169  0.838156
			 0.199151  0.023454  0.979688
			 0.094109  0.016585  0.995424
			 0.266126 -0.035486  0.963285
			-0.276523 -0.068144  0.958588
			-0.019514 -0.062609  0.997847
			 0.314626 -0.038690  0.948427
			-0.587810 -0.052253  0.807310
			-0.619602  0.068857  0.781890
			-0.767470  0.103728  0.632637
			-0.884451  0.150549  0.441680
			 0.441191 -0.239290  0.864923
			 0.307910 -0.117767  0.944099
			 0.315276 -0.445475  0.837946
			-0.020797 -0.952913 -0.302530
			-0.087175 -0.921095 -0.379454
			-0.164940 -0.948667 -0.269864
			-0.220406 -0.953308  0.206458
			-0.106930 -0.630903  0.768458
			 0.533558  0.151314 -0.832118
			 0.960413  0.094183  0.262177
			 0.200153 -0.940172  0.275710
			-0.440099 -0.890768  0.113338
			-0.518623 -0.848370 -0.106294
			-0.629929 -0.744113 -0.222452
			-0.445003 -0.313396 -0.838901
			-0.251003  0.072257 -0.965286
			-0.218095  0.071504 -0.973305
			-0.787223 -0.367768 -0.495001
			-0.495458 -0.836313 -0.234739
			-0.581950 -0.688015 -0.433554
			-0.185834 -0.981246  0.051199
			 0.300398 -0.919146  0.254816
			-0.481511  0.456541 -0.748142
			-0.993168 -0.090769 -0.073341
			-0.714964 -0.697211 -0.052178
			 0.111933 -0.986939  0.115855
			 0.398014 -0.901924  0.167685
			 0.136032 -0.959803  0.245508
			 0.598384 -0.744823  0.295254
			 0.734796 -0.627441  0.257669
			 0.791581 -0.529917  0.304281
			 0.812785 -0.326379  0.482553
			 0.789082 -0.393746  0.471502
			 0.797664 -0.367416  0.478266
			 0.682840 -0.345923  0.643480
			 0.859994 -0.388854  0.330460
			 0.880829 -0.400733  0.252098
			 0.513783 -0.244074  0.822469
			 0.629469 -0.266740  0.729807
			 0.585171 -0.245637  0.772812
			-0.851914  0.522661  0.032692
			-0.656751  0.571927  0.491505
			-0.943947  0.291944 -0.154058
			-0.786266  0.585667 -0.196925
			-0.028662  0.997620 -0.062715
			-0.747149  0.120745 -0.653598
			 0.628779 -0.031507  0.776946
			 0.061565 -0.575343  0.815592
			 0.967608 -0.096395 -0.233329
			 0.996548 -0.030474  0.077223
			 0.983544 -0.179223  0.022829
			 0.976102  0.187966 -0.109062
			 0.723238  0.501922 -0.474343
			 0.769631 -0.342814  0.538653
			-0.327983 -0.889115  0.319220
			-0.520612 -0.663112  0.537816
			-0.256434 -0.003232  0.966556
			 0.041410  0.313568  0.948662
			-0.577396 -0.488384  0.654289
			 0.827416 -0.168710  0.535649
			 0.721636 -0.036866  0.691291
			 0.944930 -0.205878  0.254404
			 0.909567 -0.415039  0.020740
			 0.345174  0.874346 -0.341137
			 0.381881  0.567467 -0.729484
			 0.279993  0.539372 -0.794155
			 0.145441 -0.841184 -0.520823
			 0.167216 -0.953613 -0.250321
			 0.578583  0.380884  0.721228
			 0.963123  0.187300  0.193167
			 0.907308  0.057273 -0.416547
			 0.642112 -0.037119 -0.765712
			 0.292372 -0.170902 -0.940910
			 0.498424  0.003246 -0.866927
			-0.041725 -0.396938 -0.916897
			 0.206481 -0.557642 -0.803991
			 0.172051 -0.514058 -0.840323
			 0.223357 -0.123375 -0.966897
			-0.096097  0.402725  0.910263
			-0.035334  0.753338  0.656683
			 0.063988  0.964358  0.256748
			 0.578633  0.751789  0.316223
			 0.780963  0.608174  0.142204
			 0.006219  0.586491 -0.809932
			 0.949399  0.267249 -0.164979
			-0.047256  0.996411 -0.070233
			-0.062663  0.969581  0.236612
			 0.497647  0.643930  0.581121
			 0.032215  0.385807  0.922017
			-0.786290  0.442235  0.431481
			-0.420286 -0.119462  0.899493