<?xml version="1.0"?>
<VTKFile type="PolyData" version="0.1" byte_order="LittleEndian" compressor="vtkZLibDataCompressor">
	<PolyData>
		<Piece NumberOfPoints="1502" NumberOfVerts="0" NumberOfLines="0" NumberOfStrips="0" NumberOfPolys="3001">
		<PointData Normals="Normals">
		<DataArray type="Float32" Name="Normals" NumberOfComponents="3" format="ascii">
			 0.269917 -0.023322  0.962601
			 0.247350 -0.012627  0.968844
			-0.359924 -0.077065  0.929794
			 0.191898 -0.067947  0.979060
			 0.474030  0.032104  0.879923
			 0.495152  0.002510  0.868803
			 0.231781  0.007271  0.972741
			-0.485718 -0.128935  0.864554
			 0.209748 -0.041573  0.976871
			-0.915525 -0.125977  0.382027
			-0.992544 -0.109506 -0.053523
			-0.645451 -0.072429  0.760360
			-0.996310 -0.076245 -0.039407
			 0.102439  0.011415  0.994674
			 0.444359 -0.047601  0.894583
			 0.345052 -0.075927  0.935508
			 0.367213  0.022983  0.929853
			 0.634255  0.055145  0.771155
			 0.689320  0.044311  0.723100
			 0.686764  0.030555  0.726238
			-0.220581 -0.116689  0.968364
			-0.769256 -0.106814  0.629949
			 0.251799 -0.042190  0.966859
			-0.994024 -0.084206  0.069465
			-0.941333 -0.078302 -0.328271
			-0.884345 -0.085261 -0.458983
			-0.899032 -0.068949 -0.432420
			-0.993460 -0.114142  0.002833
			-0.738155 -0.097926  0.667486
			 0.103917  0.028109  0.994189
			-0.939644 -0.092474 -0.329420
			-0.924805 -0.060812 -0.375549
			 0.301918  0.050457  0.951998
			 0.564875 -0.043845  0.824011
			 0.383533 -0.047778  0.922290
			 0.593932  0.099842  0.798296
			 0.768661  0.140909  0.623943
			 0.799493  0.073447  0.596167
			 0.809781  0.072840  0.582194
			 0.799896  0.100708  0.591628
			 0.603567  0.003438  0.797305
			-0.084887 -0.085781  0.992691
			-0.845963 -0.127444  0.517788
			-0.979875 -0.086059  0.180106
			-0.923783 -0.056284 -0.378757
			-0.818307 -0.072095 -0.570242
			-0.781602 -0.047982 -0.621929
			-0.767867  0.011192 -0.640512
			-0.990842 -0.116771  0.067797
			-0.976576 -0.160987 -0.142765
			-0.417569 -0.095577  0.903605
			 0.429665  0.088731  0.898618
			-0.834712 -0.104339 -0.540711
			 0.610177  0.129039  0.781686
			 0.250199  0.024787  0.967877
			 0.801972  0.207944  0.560000
			 0.871302  0.129362  0.473390
			 0.843110  0.250784  0.475681
			 0.875849  0.102711  0.471529
			 0.887678  0.161944  0.431047
			 0.923868  0.206239  0.322386
			 0.735117  0.088338  0.672160
			 0.866886  0.121197  0.483550
			-0.816269 -0.082375  0.571769
			-0.978696 -0.092230 -0.183431
			-0.989116 -0.076912 -0.125435
			-0.923198 -0.037959 -0.382447
			-0.628463 -0.051819 -0.776112
			-0.619546 -0.028976 -0.784425
			-0.627324 -0.001281 -0.778757
			-0.542565  0.096394 -0.834465
			-0.605489  0.149505 -0.781685
			-0.868473  0.012894 -0.495568
			-0.491467  0.088307 -0.866408
			-0.845136 -0.130705 -0.518325
			-0.976569 -0.208980  0.051375
			-0.403426 -0.213539  0.889746
			 0.291230 -0.112090  0.950064
			 0.411785  0.017931  0.911104
			 0.761814  0.143764  0.631642
			 0.810793  0.102959  0.576207
			-0.654180 -0.080727 -0.752018
			 0.177560  0.116543  0.977185
			 0.539888  0.091369  0.836763
			 0.623436  0.132314  0.770597
			-0.573686  0.049036  0.817606
			 0.901477  0.203379  0.382068
			 0.901588  0.308774  0.302982
			 0.976179  0.186808 -0.110347
			 0.947381  0.302179 -0.105623
			 0.971452  0.197071  0.132077
			 0.943614  0.234143  0.234028
			 0.959511  0.280562 -0.024986
			 0.901398  0.190566  0.388802
			 0.826768  0.110364  0.551611
			 0.849455  0.152046  0.505280
			 0.877296  0.187522  0.441799
			 0.838187  0.177766  0.515598
			 0.716023  0.068317  0.694725
			-0.997161 -0.016837 -0.073392
			-0.945936 -0.032470 -0.322724
			-0.440006 -0.021916 -0.897727
			-0.458082  0.013359 -0.888810
			-0.473610  0.047956 -0.879428
			-0.032411  0.388843 -0.920734
			-0.131052  0.245719 -0.960441
			-0.377769  0.148631 -0.913892
			-0.766658  0.021912 -0.641681
			-0.473245  0.230325 -0.850288
			-0.537013  0.054369 -0.841820
			-0.914791 -0.012631 -0.403729
			-0.958282 -0.012545 -0.285550
			-0.950262 -0.016143 -0.311034
			-0.348276  0.094005 -0.932666
			-0.280633  0.175788 -0.943580
			-0.841009 -0.158816 -0.517185
			-0.671190 -0.099652 -0.734557
			-0.960835 -0.218459  0.170505
			-0.891260 -0.174638 -0.418518
			-0.716941 -0.359156  0.597497
			 0.310781 -0.176655  0.933921
			 0.582595 -0.030100  0.812205
			 0.533874 -0.101179  0.839489
			 0.904569  0.091463  0.416401
			 0.969836  0.125886  0.208737
			 0.755667  0.039922  0.653738
			 0.884835  0.247850 -0.394510
			-0.426911 -0.034793 -0.903624
			 0.421700  0.082693  0.902957
			-0.138843  0.102429  0.985003
			 0.052101  0.102871  0.993329
			 0.603455 -0.006199  0.797373
			 0.214867  0.077597  0.973556
			 0.680007  0.089718  0.727696
			-0.806076  0.048377  0.589832
			 0.375190  0.236933 -0.896156
			 0.316784  0.152218 -0.936204
			 0.137580  0.148634 -0.979275
			 0.009099  0.075608 -0.997096
			 0.318569  0.268882 -0.908964
			 0.937431  0.337423  0.085847
			 0.638068  0.411445 -0.650832
			 0.924749  0.288328  0.248406
			 0.913091  0.121403  0.389263
			 0.917474  0.036807  0.396088
			 0.993648  0.015917  0.111398
			 0.939211  0.190314  0.285769
			 0.719008 -0.034785  0.694131
			 0.813364 -0.024825  0.581225
			 0.744122 -0.062691  0.665096
			-0.995691  0.004287  0.092630
			-0.384366 -0.023642 -0.922878
			-0.407711  0.005190 -0.913096
			-0.403694  0.036024 -0.914184
			 0.002063  0.539396 -0.842050
			 0.275843  0.433020 -0.858140
			 0.758659  0.545255 -0.356559
			-0.800044 -0.081363 -0.594398
			-0.593945 -0.025178 -0.804111
			-0.538865  0.022451 -0.842093
			-0.335061  0.303523 -0.891968
			-0.458727  0.208832 -0.863689
			-0.405996 -0.003543 -0.913868
			-0.421321  0.040627 -0.906001
			-0.891007 -0.149832 -0.428552
			-0.990792 -0.008264 -0.135144
			-0.822176 -0.098749 -0.560602
			-0.987739  0.017698  0.155107
			-0.821878  0.006784 -0.569623
			-0.986916  0.034079 -0.157592
			-0.974178  0.054581  0.219087
			-0.649567 -0.125763 -0.749831
			-0.379176 -0.056764 -0.923582
			-0.934503 -0.164458 -0.315687
			-0.984222 -0.171765  0.042476
			-0.711840 -0.146940 -0.686799
			-0.487548 -0.676118  0.552415
			-0.910330 -0.267784 -0.315579
			-0.978079 -0.200095 -0.057646
			 0.137308 -0.155332  0.978273
			 0.651891  0.080633  0.754014
			 0.645015 -0.010082  0.764103
			 0.978135  0.145777  0.148327
			 0.907196  0.133243  0.399051
			 0.842654  0.203507 -0.498518
			 0.551599  0.157678 -0.819070
			 0.817970  0.095442  0.567288
			-0.157030 -0.028388 -0.987186
			-0.319139 -0.016716 -0.947561
			-0.596530  0.031026  0.801991
			 0.562176 -0.003091  0.827012
			 0.616618 -0.225758  0.754199
			 0.649440 -0.101873  0.753558
			-0.089707  0.102426  0.990688
			 0.217174  0.009380  0.976088
			-0.574982  0.091938  0.812984
			 0.916334  0.390243  0.089684
			 0.886509  0.459561 -0.053897
			 0.946358  0.080526  0.312926
			 0.987590  0.056300  0.146619
			 0.908963 -0.080854  0.408962
			 0.999721 -0.018472 -0.014722
			 0.972362  0.021441 -0.232492
			 0.996116 -0.085740 -0.020049
			 0.918174 -0.078929 -0.388235
			 0.934958  0.302373  0.185537
			 0.526772 -0.108212  0.843090
			 0.702515 -0.014150  0.711528
			 0.946023 -0.008048  0.324001
			 0.119667  0.519253 -0.846201
			-0.821040 -0.178050 -0.542395
			-0.688796  0.013370 -0.724831
			-0.446707  0.112981 -0.887518
			-0.492363 -0.078043 -0.866884
			-0.517366  0.178947 -0.836846
			-0.467929 -0.113504 -0.876447
			-0.322751  0.174331 -0.930290
			-0.054545  0.065588 -0.996355
			-0.794453 -0.077099 -0.602413
			-0.748144 -0.210680 -0.629201
			-0.704131  0.112061  0.701172
			-0.924401 -0.187300 -0.332267
			-0.542253  0.082368  0.836168
			-0.867302 -0.345501  0.358352
			-0.319939 -0.076118 -0.944376
			-0.463549 -0.107794 -0.879490
			-0.956626 -0.152454 -0.248244
			-0.796035 -0.151064 -0.586095
			-0.435041 -0.094990 -0.895386
			 0.449428 -0.798478 -0.400558
			 0.375853 -0.033803  0.926062
			-0.923330 -0.166872 -0.345856
			-0.467850 -0.106907 -0.877318
			-0.966374 -0.219161 -0.134502
			-0.961840 -0.175141 -0.210213
			 0.504188  0.297201  0.810843
			 0.788027  0.159312  0.594671
			 0.974468  0.208868  0.082385
			 0.755883  0.220629 -0.616412
			 0.904738  0.239140  0.352508
			-0.069968  0.000826 -0.997549
			 0.377058 -0.488997  0.786581
			 0.276135 -0.759385  0.589138
			 0.339702 -0.417756  0.842664
			-0.331168 -0.330068  0.883959
			 0.219380  0.635234 -0.740507
			 0.828464  0.526548 -0.190772
			 0.858877  0.187000  0.476824
			 0.912732 -0.335361  0.233352
			 0.779127  0.019746  0.626555
			 0.988612 -0.059401 -0.138268
			 0.880651 -0.002457 -0.473760
			 0.911498 -0.292014 -0.289654
			 0.922100 -0.195462 -0.333955
			 0.918042 -0.049701 -0.393357
			 0.813673 -0.116595 -0.569510
			 0.933480  0.336292  0.124592
			 0.873971  0.463306 -0.146704
			 0.507797 -0.046177  0.860238
			 0.198690 -0.227814  0.953217
			 0.218027 -0.152270  0.963991
			 0.786224  0.028981  0.617261
			 0.996138  0.067556  0.056090
			 0.948914  0.080638 -0.305057
			 0.912508  0.019341 -0.408602
			 0.934170 -0.029508 -0.355606
			-0.783031 -0.203561 -0.587728
			-0.743106 -0.095050 -0.662389
			-0.559774 -0.514875 -0.649274
			-0.700764 -0.312603 -0.641256
			-0.632455 -0.340923 -0.695538
			-0.578792  0.027218 -0.815021
			-0.455377  0.276234 -0.846361
			-0.468260  0.220030 -0.855757
			-0.658306 -0.121014 -0.742959
			-0.504063 -0.366740 -0.781935
			 0.790971  0.017718 -0.611597
			-0.190182  0.132232 -0.972803
			 0.374374 -0.768680 -0.518629
			 0.943465 -0.079666 -0.321757
			-0.770907 -0.178920 -0.611302
			-0.843520 -0.242632 -0.479171
			-0.653306 -0.723895 -0.221738
			-0.658063 -0.746455 -0.098781
			-0.206423 -0.907211  0.366549
			-0.870858 -0.175165 -0.459264
			-0.347830 -0.104649 -0.931699
			 0.126975  0.084084 -0.988336
			-0.323340 -0.135343 -0.936554
			 0.433094 -0.506265 -0.745738
			 0.878651 -0.181189  0.441750
			 0.955441 -0.101139  0.277314
			 0.927105  0.165510  0.336277
			 0.767430  0.311212  0.560534
			 0.498481  0.249183  0.830316
			-0.633086 -0.434515 -0.640624
			-0.903273 -0.421752 -0.078891
			-0.283572 -0.152861 -0.946689
			-0.956882 -0.226417 -0.181965
			-0.829637 -0.232781 -0.507461
			 0.815882  0.289177  0.500712
			 0.792042  0.270272  0.547377
			 0.953168  0.280517  0.113051
			 0.796520  0.238717 -0.555491
			 0.069386 -0.973629  0.217328
			-0.126801 -0.767675  0.628170
			 0.132605 -0.322217  0.937332
			-0.451556  0.274072 -0.849107
			 0.433158  0.561380 -0.705143
			 0.847762  0.150896  0.508459
			 0.550270 -0.394067  0.736148
			 0.808611  0.050967  0.586132
			 0.715444 -0.072383 -0.694911
			 0.738249 -0.393140 -0.548114
			 0.227582 -0.448092 -0.864534
			 0.792633  0.522520 -0.314176
			 0.720796  0.000710  0.693147
			 0.407294 -0.103889  0.907369
			-0.272659 -0.308126  0.911436
			-0.316516 -0.350441  0.881481
			 0.062624 -0.233761  0.970275
			-0.314126 -0.356656  0.879842
			 0.794408  0.066798  0.603700
			 0.991730  0.128331  0.001698
			 0.544835  0.083629 -0.834363
			 0.330998 -0.060891 -0.941665
			 0.444090  0.021482 -0.895725
			 0.481629 -0.100920 -0.870545
			-0.645424 -0.235860 -0.726497
			-0.411743 -0.278618 -0.867663
			-0.109855 -0.780085 -0.615954
			-0.034545 -0.284167 -0.958152
			-0.031375 -0.636362 -0.770752
			-0.894769 -0.207548 -0.395363
			 0.024270 -0.467765  0.883520
			-0.887112 -0.312932 -0.339272
			-0.775976 -0.189143 -0.601737
			-0.733712 -0.492636  0.467950
			 0.980827 -0.074622 -0.180028
			 0.505181 -0.011064 -0.862942
			 0.295083  0.072738 -0.952699
			-0.444400 -0.250472 -0.860100
			-0.428960 -0.205005 -0.879754
			-0.282517 -0.385308 -0.878477
			 0.870022 -0.405996  0.279694
			 0.540284 -0.776435 -0.324410
			 0.383571 -0.119302  0.915773
			 0.724905  0.046019  0.687310
			 0.472249 -0.359264  0.804929
			 0.871021  0.155227  0.466077
			 0.863586  0.309665  0.397902
			 0.893806  0.291433  0.340848
			 0.792796  0.103485  0.600638
			 0.580344  0.110084  0.806897
			 0.716217  0.161357  0.678967
			-0.283616 -0.440758 -0.851642
			-0.554899 -0.714380 -0.426319
			-0.686971 -0.617944 -0.382382
			-0.863854 -0.289803 -0.412034
			-0.644472 -0.275806 -0.713153
			 0.964499 -0.068446 -0.255062
			 0.891415  0.140099  0.430989
			 0.974209  0.129757 -0.184610
			-0.158986 -0.406838  0.899559
			-0.596800  0.251832 -0.761847
			-0.933619  0.081208 -0.348942
			-0.255634  0.367662 -0.894135
			 0.612414 -0.181037  0.769529
			 0.949725  0.168127  0.264112
			-0.132094 -0.177135 -0.975282
			 0.430748  0.572245 -0.697847
			 0.372234 -0.087793  0.923977
			-0.914734 -0.384864  0.123049
			-0.848379 -0.494989  0.187719
			-0.509516 -0.447457  0.734967
			 0.086032 -0.186303  0.978719
			 0.256676  0.199355  0.945714
			 0.864803  0.311431  0.393860
			 0.386634  0.122289 -0.914089
			 0.817935  0.406514 -0.407098
			-0.212335 -0.030367 -0.976725
			-0.083317 -0.018936 -0.996343
			-0.404451 -0.088350 -0.910282
			-0.528031 -0.198886 -0.825607
			-0.670795 -0.253265 -0.697059
			-0.575058 -0.108716 -0.810857
			-0.374979 -0.165557 -0.912130
			-0.989834  0.141068 -0.018128
			 0.060422 -0.186642  0.980568
			 0.254861 -0.404386  0.878361
			-0.808996 -0.263903 -0.525243
			 0.981003 -0.034235 -0.190949
			 0.274598 -0.029070 -0.961120
			-0.442774 -0.200894 -0.873838
			-0.356561 -0.100033 -0.928901
			 0.334493 -0.668341 -0.664405
			 0.112116 -0.577880 -0.808384
			-0.659433 -0.431412 -0.615656
			-0.836816 -0.195957 -0.511213
			-0.722899 -0.294298 -0.625144
			-0.429225 -0.693472 -0.578673
			 0.107858 -0.932197  0.345507
			 0.202239  0.009079  0.979294
			 0.472460  0.151749  0.868190
			 0.772218  0.223579  0.594720
			-0.303228 -0.211615  0.929124
			-0.222707 -0.578395  0.784768
			 0.877387  0.336371  0.342121
			 0.858950  0.062002  0.508293
			 0.859682 -0.047114  0.508653
			 0.827248 -0.073688  0.556984
			 0.722739 -0.085694  0.685788
			 0.779285 -0.000205  0.626670
			 0.876253  0.069221  0.476853
			 0.110104 -0.816687 -0.566480
			-0.107299 -0.925898 -0.362214
			-0.769907 -0.341880 -0.538851
			-0.142053 -0.896450 -0.419759
			-0.513062 -0.535288 -0.670994
			 0.900151  0.085840  0.427035
			 0.942965  0.094361  0.319238
			 0.383366 -0.156785 -0.910192
			 0.990872  0.022495 -0.132915
			-0.861667  0.133454 -0.489613
			-0.318682  0.433694 -0.842823
			 0.469403  0.289924 -0.834029
			 0.927632  0.161387 -0.336827
			 0.666474 -0.315516  0.675472
			 0.893780  0.276073 -0.353470
			 0.947269 -0.058646  0.315026
			 0.139133  0.352386 -0.925455
			-0.830458 -0.443570 -0.337023
			 0.521368 -0.094399  0.848094
			-0.918852 -0.390110  0.059381
			-0.851224 -0.448871 -0.271906
			 0.593647  0.115914  0.796334
			 0.613787  0.619006  0.489997
			 0.189901  0.500602  0.844592
			 0.066886  0.284699  0.956281
			 0.776084  0.630161  0.024300
			 0.624845  0.644413 -0.440796
			-0.688603 -0.093035 -0.719145
			-0.149363  0.350360 -0.924629
			 0.274738  0.530353 -0.802025
			-0.655078 -0.184899 -0.732588
			-0.652860  0.093970  0.751627
			-0.967187  0.209559 -0.143644
			 0.412221 -0.302982  0.859229
			 0.235754 -0.355785  0.904343
			 0.274524 -0.603773  0.748394
			 0.388298 -0.751970  0.532697
			-0.312046 -0.299982 -0.901464
			-0.306635 -0.193511 -0.931949
			-0.305984 -0.128928 -0.943266
			-0.329962 -0.152824 -0.931542
			 0.896694 -0.421679 -0.134640
			 0.821608 -0.559362 -0.109884
			 0.949201 -0.314279  0.015687
			-0.616781 -0.528975  0.582895
			-0.932998 -0.245910  0.262761
			-0.780447 -0.596672  0.186777
			-0.242345 -0.179297  0.953478
			 0.487514  0.036283  0.872361
			 0.646325  0.261776  0.716755
			 0.856540 -0.515184  0.030413
			 0.940024 -0.264685  0.215165
			 0.887784 -0.414175  0.200743
			 0.822617 -0.466005  0.325792
			 0.803952 -0.373514  0.462761
			 0.863181 -0.199100  0.463980
			 0.907791 -0.183329  0.377234
			 0.931936 -0.147940  0.331073
			 0.751203 -0.660058 -0.004278
			 0.368017 -0.896770 -0.245699
			 0.203881 -0.937410 -0.282304
			 0.271203 -0.911401 -0.309511
			 0.501452 -0.810840 -0.301802
			 0.996094  0.072153  0.050905
			 0.971268 -0.204156  0.122307
			 0.480756 -0.071850 -0.873906
			-0.373820  0.262766 -0.889501
			-0.341637 -0.008072 -0.939797
			 0.688329  0.089217 -0.719892
			 0.993070  0.104336 -0.054100
			 0.881589 -0.370975  0.291852
			 0.500548  0.025513 -0.865333
			 0.982245 -0.074596 -0.172133
			-0.129334  0.103347 -0.986201
			-0.935145  0.076803 -0.345840
			-0.964588  0.098383  0.244726
			-0.554233  0.225976  0.801100
			 0.393409  0.914312  0.096241
			 0.287935  0.810119  0.510687
			 0.238907  0.906677  0.347649
			-0.491164  0.588914  0.641824
			-0.176045  0.762012  0.623174
			 0.136247  0.822101  0.552798
			 0.198981  0.915127 -0.350641
			-0.096804  0.544790 -0.832966
			-0.708149  0.067610 -0.702819
			-0.598511  0.370824 -0.710122
			-0.735192  0.250012 -0.630069
			-0.856461 -0.435417  0.277284
			-0.915308  0.188490 -0.355925
			-0.499945 -0.865893 -0.016861
			-0.370005 -0.679092 -0.633979
			 0.656675 -0.562854 -0.501968
			-0.010712 -0.569977 -0.821591
			 0.727313 -0.032343 -0.685543
			 0.336304 -0.433114 -0.836249
			 0.950864 -0.127064  0.282334
			 0.941556 -0.235388  0.240965
			 0.980762 -0.194834 -0.012046
			 0.922733 -0.177847 -0.341957
			 0.690279 -0.698402  0.189077
			 0.884158 -0.419893 -0.204829
			 0.536271 -0.696579  0.476645
			 0.846781 -0.515105 -0.132776
			 0.727126 -0.628607 -0.275937
			 0.376740 -0.634280 -0.675097
			 0.627246 -0.701056 -0.339238
			 0.797028 -0.590096  0.128579
			 0.847233 -0.436004  0.303473
			 0.897594 -0.319209  0.304025
			 0.835416 -0.503956  0.219338
			 0.782126 -0.594063  0.188063
			 0.879591 -0.364994  0.305121
			 0.753709 -0.618283  0.222822
			 0.756332 -0.616059  0.220077
			 0.782395 -0.576186  0.236362
			 0.776116 -0.514383  0.364766
			 0.663510 -0.732666  0.151509
			 0.917048 -0.397155  0.035918
			 0.745790 -0.627777  0.222917
			-0.712880 -0.191765 -0.674558
			-0.129196 -0.210608 -0.968996
			-0.857602 -0.148162 -0.492511
			-0.888919  0.445149  0.108002
			-0.866045  0.345535 -0.361347
			-0.053257  0.998578  0.002263
			 0.037697  0.956902  0.287954
			 0.143254  0.921842  0.360119
			-0.022129  0.889894  0.455631
			 0.184521  0.832068  0.523082
			-0.647089  0.755837  0.099928
			-0.460966  0.830132  0.313673
			-0.288347  0.918035  0.272154
			 0.064064  0.912794  0.403365
			 0.176976  0.830686  0.527864
			-0.385340  0.704098 -0.596456
			-0.343338  0.925897 -0.157587
			-0.545039  0.491960 -0.678902
			-0.737923  0.346659 -0.579049
			-0.666971  0.603862 -0.436464
			-0.637711  0.471838 -0.608846
			 0.380307 -0.881331 -0.280396
			 0.492545 -0.828654  0.265955
			 0.885503 -0.169241  0.432714
			 0.992696 -0.073465  0.095690
			 0.841999 -0.059095  0.536233
			 0.848669  0.003234  0.528914
			 0.947708 -0.000764  0.319137
			 0.962752 -0.051107 -0.265512
			 0.875100 -0.236021 -0.422486
			 0.813586 -0.048307 -0.579435
			 0.614662 -0.075522 -0.785167
			 0.775015 -0.407357 -0.483127
			 0.605965 -0.522898 -0.599487
			 0.281616 -0.574096 -0.768834
			-0.107135 -0.447785 -0.887700
			-0.199849 -0.524816 -0.827423
			 0.334887 -0.780358 -0.528102
			 0.371175 -0.808466 -0.456740
			 0.513752 -0.808001 -0.288433
			 0.601676 -0.785627 -0.144137
			 0.308226 -0.926590 -0.215472
			 0.237256 -0.962344 -0.132682
			 0.430664 -0.876025  0.217045
			 0.078261 -0.995776 -0.048007
			 0.823867 -0.438725  0.358835
			 0.805514 -0.470033  0.360856
			 0.788421 -0.439405  0.430484
			 0.736220 -0.462077  0.494435
			 0.734396 -0.395060  0.551896
			 0.653742 -0.608814  0.449408
			 0.539851 -0.719480  0.436932
			 0.284442 -0.871613  0.399228
			-0.214916  0.956790 -0.195868
			-0.703290  0.634956 -0.319711
			-0.700972  0.603244 -0.380439
			-0.811279  0.473196 -0.343382
			-0.228936  0.946675  0.226705
			-0.020202  0.864381  0.502432
			 0.092549  0.847909  0.522001
			 0.066002  0.862796  0.501225
			 0.078300  0.857045  0.509258
			 0.118267  0.872036  0.474938
			-0.424460  0.899766 -0.101268
			-0.474250  0.854197 -0.213155
			-0.307261  0.950555  0.045116
			-0.109579  0.991430  0.071125
			-0.039170  0.969283  0.242810
			 0.132566  0.920187  0.368350
			 0.196724  0.972381  0.125601
			 0.214978  0.965508  0.146896
			-0.539101  0.637006 -0.550994
			-0.598114  0.740731 -0.305906
			-0.567844  0.820348  0.067689
			-0.611874  0.629344 -0.479099
			-0.300787  0.952887 -0.039164
			-0.345008  0.938410  0.018890
			-0.623987  0.702702 -0.341834
			 0.443627 -0.844163  0.300971
			 0.157092 -0.933370  0.322711
			 0.225330 -0.793470  0.565359
			 0.233600 -0.690870  0.684200
			 0.839723 -0.169872  0.515760
			 0.999797  0.003657  0.019809
			 0.811222 -0.121406  0.571996
			 0.742423 -0.062581  0.667002
			 0.936882  0.029735  0.348380
			 0.825217  0.125175  0.550771
			 0.754301  0.108726  0.647464
			 0.750877  0.043267 -0.659024
			 0.938434  0.023103 -0.344685
			 0.722371 -0.144954 -0.676143
			 0.497607  0.002155 -0.867400
			 0.448498 -0.148952 -0.881285
			 0.365703 -0.039730 -0.929883
			 0.284223 -0.041169 -0.957874
			 0.089832 -0.003574 -0.995950
			 0.434847 -0.332676 -0.836800
			 0.132646 -0.382327 -0.914457
			-0.076883 -0.435913 -0.896699
			-0.337630 -0.337115 -0.878840
			-0.296755 -0.253582 -0.920670
			-0.027381 -0.691307 -0.722043
			 0.000818 -0.712822 -0.701345
			-0.565555 -0.255071 -0.784274
			-0.319128 -0.520812 -0.791778
			-0.479466 -0.298368 -0.825281
			-0.171877 -0.696009 -0.697158
			-0.274849 -0.747908 -0.604228
			-0.387796 -0.782766 -0.486715
			-0.464998 -0.813752 -0.348689
			-0.299715 -0.952020  0.061874
			 0.783207 -0.153488  0.602518
			 0.684178 -0.376706  0.624494
			 0.697813 -0.206998  0.685717
			 0.585117 -0.563703  0.582990
			-0.032213 -0.842440  0.537826
			-0.288758  0.870356 -0.398873
			-0.273816  0.808514 -0.520893
			-0.590938  0.737671 -0.326549
			-0.166262  0.983525 -0.070964
			-0.344351  0.890617  0.297024
			-0.152951  0.837655  0.524348
			-0.012005  0.822243  0.569009
			-0.166522  0.797519  0.579857
			-0.269788  0.923510  0.272661
			-0.263493  0.892920  0.365055
			-0.259614  0.929429  0.262226
			-0.261180  0.931845  0.251893
			-0.235704  0.953572  0.187469
			-0.211273  0.973388 -0.088762
			-0.221861  0.941920 -0.252120
			-0.180879  0.983490  0.005425
			 0.018272  0.995021 -0.097975
			 0.152777  0.986707  0.055384
			-0.122003  0.987710 -0.097691
			-0.174336  0.983473  0.048864
			-0.073247  0.980540 -0.182144
			 0.073044  0.997328 -0.000815
			-0.139885  0.947086 -0.288894
			-0.676227  0.708115 -0.203200
			-0.670955  0.741221 -0.020272
			-0.701716  0.690431  0.175782
			-0.459771  0.835038  0.302194
			-0.589125  0.767048  0.254104
			-0.616933  0.772395 -0.150993
			 0.368479  0.873945  0.316927
			 0.259317  0.868927  0.421569
			 0.218449  0.838749  0.498779
			-0.335397  0.937479  0.092963
			 0.335750 -0.760682  0.555550
			 0.025526 -0.849115  0.527591
			 0.048923 -0.841976  0.537293
			 0.985439  0.035320  0.166320
			 0.991169  0.106709 -0.078720
			 0.680515 -0.065987  0.729757
			 0.622219 -0.261654  0.737821
			 0.592213 -0.220474  0.775033
			 0.939826  0.138923  0.312134
			 0.694018  0.166602  0.700416
			 0.790592  0.238769  0.563874
			 0.700552  0.167617  0.693636
			 0.712108  0.052902  0.700074
			 0.762698  0.181472  0.620773
			 0.691355  0.168704  0.702543
			 0.752895  0.131186  0.644933
			 0.752889  0.209980  0.623752
			 0.283036  0.118374 -0.951776
			 0.608319  0.099236 -0.787465
			 0.833509  0.159974 -0.528839
			 0.109213  0.061262 -0.992129
			 0.049361 -0.048782 -0.997589
			 0.149226 -0.203230 -0.967693
			-0.254892  0.054059 -0.965457
			-0.288636  0.016441 -0.957298
			-0.161674  0.032077 -0.986323
			-0.079851 -0.162142 -0.983531
			-0.546339 -0.197344 -0.813983
			-0.351465 -0.011978 -0.936124
			-0.524647 -0.070861 -0.848366
			-0.598412 -0.286679 -0.748143
			-0.621799 -0.150005 -0.768677
			-0.475858 -0.443082 -0.759762
			-0.540892 -0.471641 -0.696412
			-0.599710 -0.530107 -0.599445
			-0.645536 -0.577850 -0.499372
			-0.537929 -0.778525 -0.323313
			-0.622088 -0.696326 -0.357963
			-0.654454 -0.752291 -0.075821
			-0.551117 -0.803268  0.225900
			 0.647929 -0.354815  0.674014
			 0.571991 -0.438972  0.692914
			 0.440444 -0.579631  0.685592
			-0.193880 -0.859751  0.472482
			-0.415207  0.841508 -0.345639
			-0.238604  0.913115 -0.330591
			-0.084462  0.989596 -0.116473
			 0.481440  0.846231  0.228274
			-0.399696  0.828803  0.391571
			-0.389840  0.796328  0.462478
			-0.191781  0.826780  0.528824
			-0.133995  0.724099  0.676555
			-0.208200  0.730995  0.649845
			-0.174802  0.800111  0.573818
			-0.443028  0.797947  0.408664
			-0.574899  0.724899  0.379491
			-0.602787  0.680233  0.417051
			-0.397339  0.719248  0.569916
			-0.679639  0.719839 -0.141151
			-0.708788  0.705134 -0.020141
			-0.620644  0.778460 -0.093813
			-0.645696  0.744921 -0.167839
			-0.608340  0.749297 -0.261682
			-0.147293  0.975992 -0.160448
			-0.149138  0.964920 -0.216071
			-0.051952  0.996374 -0.067376
			 0.219204  0.968424  0.118761
			 0.036435  0.995593 -0.086410
			 0.215988  0.975716  0.036437
			 0.280075  0.956450  0.082226
			 0.192872  0.980227 -0.044215
			-0.170009  0.981670 -0.086145
			 0.074597  0.944217 -0.320763
			-0.121574  0.901937 -0.414403
			 0.143710  0.967104 -0.209899
			 0.188218  0.914301 -0.358648
			 0.038727  0.985045 -0.167888
			-0.204360  0.920754 -0.332339
			-0.540412  0.730795 -0.417006
			-0.421705  0.719406 -0.551925
			-0.182301  0.919788 -0.347499
			-0.445812  0.718451 -0.533929
			-0.413754  0.744029 -0.524623
			-0.383794  0.901022  0.202142
			-0.404253  0.882367  0.240848
			-0.537519  0.797844  0.272980
			-0.531566  0.710541  0.461053
			-0.558919  0.714548  0.420751
			-0.432480  0.774969  0.460851
			-0.559997  0.716099  0.416659
			-0.416848  0.728371  0.543795
			-0.514283  0.786351  0.342294
			-0.459960  0.785667  0.413720
			-0.343614  0.754706  0.558882
			-0.286357  0.931268  0.225256
			 0.697171  0.541133  0.470242
			 0.634830  0.521280  0.570314
			 0.572031  0.494585  0.654345
			 0.559420  0.474863  0.679377
			 0.222075  0.812753  0.538623
			 0.254826 -0.586424  0.768876
			 0.067048 -0.703458  0.707567
			-0.084936 -0.762377  0.641535
			 0.963787  0.240313  0.115607
			 0.939823  0.277857 -0.198816
			 0.498611 -0.039520  0.865924
			 0.495771 -0.154071  0.854677
			 0.471050 -0.406689  0.782762
			 0.415533 -0.364480  0.833359
			 0.320201 -0.292273  0.901137
			 0.893846  0.297725  0.335261
			 0.725185  0.178277  0.665075
			 0.883871  0.364599  0.292985
			 0.845478  0.246079  0.473932
			 0.728283  0.192088  0.657804
			 0.627627  0.133829  0.766925
			 0.810920  0.042517  0.583611
			 0.729989  0.149518  0.666903
			 0.822432  0.077307  0.563586
			-0.145810  0.108659 -0.983327
			 0.428338  0.182021 -0.885096
			 0.019379  0.189103 -0.981766
			 0.604865  0.289795 -0.741726
			 0.779862  0.404262 -0.477898
			-0.137392 -0.071018 -0.987968
			-0.365177 -0.027232 -0.930540
			-0.459325 -0.087312 -0.883967
			-0.763895 -0.199325 -0.613787
			-0.678922 -0.377332 -0.629830
			-0.755879 -0.193659 -0.625414
			-0.456690 -0.092083 -0.884848
			-0.672487 -0.169195 -0.720510
			-0.748024 -0.407790 -0.523610
			-0.794983 -0.478812 -0.372480
			-0.795880 -0.594111 -0.116651
			-0.759212 -0.632212  0.154613
			-0.870507 -0.479903 -0.109137
			-0.477712 -0.760900  0.439115
			 0.141293  0.984955 -0.099493
			 0.578815  0.764431  0.283932
			 0.473711  0.871734  0.125207
			 0.723834  0.539807  0.429736
			-0.598420  0.716811  0.357876
			-0.630820  0.707026  0.319657
			-0.508283  0.728687  0.458981
			-0.312880  0.819844  0.479543
			-0.735939  0.481940  0.475528
			-0.506018  0.694389  0.511635
			-0.373352  0.759399  0.532843
			-0.470000  0.665928  0.579345
			-0.626957  0.628805  0.459923
			-0.810026  0.586370 -0.005316
			-0.855670  0.517275  0.016012
			-0.892890  0.439313  0.098753
			-0.754807  0.541577  0.370081
			-0.775483  0.539527 -0.327928
			-0.831181  0.491119 -0.260654
			-0.728826  0.563482 -0.388975
			-0.662918  0.566843 -0.489110
			-0.041612  0.895553 -0.443004
			 0.042505  0.933945 -0.354879
			-0.050322  0.830574 -0.554629
			-0.136989  0.882361 -0.450192
			-0.102891  0.934848 -0.339812
			-0.084650  0.845628 -0.527018
			 0.181153  0.959219 -0.216987
			 0.679716  0.721432  0.132370
			 0.525351  0.843378 -0.112785
			 0.526442  0.798227  0.292733
			 0.412729  0.813497  0.409729
			 0.451849  0.857304  0.246703
			 0.451238  0.887535  0.093090
			 0.626973  0.712822  0.314308
			 0.625362  0.680622  0.381675
			-0.054692  0.695906 -0.716047
			 0.116526  0.751830 -0.648979
			-0.281091  0.691220 -0.665735
			-0.228657  0.789018 -0.570234
			 0.944522  0.250299 -0.212671
			 0.605789  0.500380 -0.618579
			-0.200821  0.777043 -0.596553
			-0.576001  0.590521 -0.565250
			-0.421511  0.594125 -0.685087
			-0.539062  0.407452 -0.737154
			-0.628080  0.431080 -0.647832
			 0.204851  0.812049  0.546455
			 0.083332  0.861941  0.500114