<?xml version="1.0"?>
<VTKFile type="PolyData" version="0.1" byte_order="LittleEndian" compressor="vtkZLibDataCompressor">
	<PolyData>
		<Piece NumberOfPoints="1133" NumberOfVerts="0" NumberOfLines="0" NumberOfStrips="0" NumberOfPolys="2262">
		<PointData Normals="Normals">
		<DataArray type="Float32" Name="Normals" NumberOfComponents="3" format="ascii">
			 0.970668 -0.058550  0.233184
			 0.975619 -0.074640  0.206387
			 0.972891 -0.087391  0.214117
			 0.993335 -0.031804  0.110790
			 0.988436 -0.028893  0.148860
			 0.954195  0.017213  0.298691
			 0.975046 -0.114284  0.190327
			 0.991839 -0.062707  0.111011
			 0.987579 -0.110189  0.112012
			 0.995460 -0.042660  0.085090
			 0.997200 -0.055157  0.050494
			 0.976566 -0.073925  0.202125
			 0.995768 -0.042317  0.081584
			 0.954907 -0.121782  0.270780
			 0.949899 -0.137662  0.280608
			 0.969422 -0.161643  0.184642
			 0.975641  0.016838  0.218726
			 0.998926 -0.040825 -0.021933
			 0.996410 -0.032090 -0.078344
			 0.997269 -0.072334  0.014897
			 0.947054  0.034560  0.319209
			 0.987993 -0.105276 -0.113078
			 0.999238 -0.030647  0.024174
			 0.977764 -0.165606  0.128655
			 0.994165 -0.093049  0.054565
			 0.987292 -0.147993  0.057906
			 0.999731 -0.021230  0.009383
			 0.986229 -0.087173  0.140547
			 0.998911 -0.019989  0.042164
			 0.941511  0.012671  0.336745
			 0.998188  0.001187  0.060164
			 0.999725 -0.016040  0.017113
			 0.965476 -0.144679  0.216619
			 0.965671 -0.196764  0.169596
			 0.950354 -0.150420  0.272400
			 0.991503 -0.023618  0.127919
			 0.993120  0.014191  0.116242
			 0.951556  0.060235  0.301517
			 0.991050 -0.058516  0.119980
			 0.990224 -0.104443  0.092455
			 0.998128 -0.022175  0.056990
			 0.991121 -0.025953  0.130402
			 0.986531 -0.160913 -0.029395
			 0.978792 -0.094460 -0.181776
			 0.988384 -0.108091 -0.106833
			 0.970820 -0.151538 -0.185863
			 0.978809 -0.049882 -0.198607
			 0.981885 -0.184775  0.041947
			 0.975420 -0.137829  0.171929
			 0.999951 -0.003562  0.009249
			 0.935276 -0.120865  0.332643
			 0.950421 -0.042537  0.308042
			 0.998553 -0.006194  0.053424
			 0.775703  0.013870  0.630945
			 0.728067 -0.064691  0.682447
			 0.728371  0.016141  0.684993
			 0.644808  0.089947  0.759034
			 0.981358 -0.105099  0.160909
			 0.967378 -0.144429  0.208133
			 0.886924 -0.071542  0.456342
			 0.865545 -0.083749  0.493779
			 0.991027 -0.083281  0.104547
			 0.953172  0.026643  0.301252
			 0.986913 -0.022730 -0.159643
			 0.998604  0.013410  0.051085
			 0.966138  0.058195  0.251378
			 0.978121 -0.035866 -0.204920
			 0.928484  0.070042  0.364708
			 0.908167 -0.077070  0.411452
			 0.984152 -0.119697  0.130833
			 0.988796 -0.043344  0.142840
			 0.877197 -0.044269  0.478085
			 0.983276 -0.182010  0.006372
			 0.982205 -0.163355 -0.092676
			 0.976004 -0.213275 -0.043929
			 0.981028 -0.181286 -0.068700
			 0.991175 -0.109816 -0.074248
			 0.979722 -0.107740 -0.168932
			 0.995525 -0.086965 -0.036977
			 0.993165 -0.106418 -0.047938
			 0.989205 -0.066021 -0.130819
			 0.970626 -0.080980 -0.226554
			 0.988780 -0.121739  0.086560
			 0.970400 -0.086359  0.225535
			 0.972865 -0.067616  0.221274
			 0.872862 -0.124184  0.471901
			 0.511264 -0.035665  0.858683
			 0.402756 -0.034991  0.914638
			 0.569779  0.018716  0.821585
			 0.480354 -0.067540  0.874470
			 0.429819 -0.038080  0.902112
			 0.721840 -0.064910  0.689009
			 0.256439  0.056183  0.964926
			 0.407545  0.024763  0.912849
			 0.345308  0.052050  0.937045
			 0.968598 -0.115839  0.220000
			 0.989976  0.094295  0.105152
			 0.984307 -0.015703  0.175763
			 0.923997 -0.135861  0.357450
			 0.973585 -0.047566  0.223313
			 0.827840 -0.062202  0.557505
			 0.844917 -0.005982  0.534863
			 0.941439  0.001665  0.337179
			 0.919440  0.139355  0.367710
			 0.917903  0.095506  0.385140
			 0.987445 -0.008537 -0.157735
			 0.937059 -0.063091 -0.343424
			 0.934664 -0.015517 -0.355193
			 0.981770  0.047110  0.184141
			 0.669390 -0.038698  0.741902
			 0.491262 -0.056468  0.869180
			 0.695228 -0.047369  0.717227
			 0.459874  0.019704  0.887765
			 0.989155 -0.135107 -0.057600
			 0.983424 -0.171051 -0.060151
			 0.970218 -0.180093 -0.161997
			 0.956159 -0.243302 -0.162986
			 0.969026 -0.172825 -0.176409
			 0.984487 -0.109449 -0.137133
			 0.990936 -0.123778 -0.052201
			 0.986043 -0.098722 -0.134063
			 0.984466 -0.128236 -0.119924
			 0.996251 -0.086278  0.006324
			 0.996287 -0.074102  0.043829
			 0.955487 -0.082531 -0.283256
			 0.987733 -0.106085 -0.114586
			 0.991024 -0.111612 -0.073579
			 0.999412 -0.005317  0.033872
			 0.993725 -0.030994  0.107470
			 0.990133 -0.042187  0.133629
			 0.995882 -0.046132  0.078046
			 0.068044  0.014498  0.997577
			 0.022289  0.046674  0.998661
			 0.165836 -0.041423  0.985283
			 0.080406 -0.059033  0.995013
			 0.041641 -0.028075  0.998738
			 0.247485 -0.041657  0.967996
			 0.613758  0.031670  0.788859
			 0.439486 -0.011139  0.898181
			 0.148695 -0.003999  0.988875
			 0.247524 -0.071515  0.966239
			-0.056452 -0.018482  0.998234
			 0.985722 -0.080892  0.147674
			 0.955175  0.021337  0.295271
			 0.822037  0.560775  0.098929
			 0.941866  0.335422  0.019501
			 0.951726  0.239184  0.192377
			 0.948638  0.208534  0.237906
			 0.923478  0.347250  0.163114
			 0.959671  0.190846  0.206422
			 0.865634  0.015197  0.500447
			 0.686613  0.076466  0.722990
			 0.799010  0.205592  0.565080
			 0.795474  0.021831  0.605594
			 0.944447  0.185587  0.271251
			 0.951693  0.162670  0.260421
			 0.894447  0.235807  0.379947
			 0.949945  0.111693  0.291770
			 0.961456 -0.027068 -0.273622
			 0.993241  0.012501 -0.115395
			 0.920804 -0.050800 -0.386703
			 0.931985 -0.080503 -0.353445
			 0.961648 -0.091595 -0.258540
			 0.947985  0.034536 -0.316436
			 0.926727 -0.001266 -0.375733
			 0.995813  0.063032  0.066209
			 0.606051  0.002808  0.795421
			 0.143710  0.028344  0.989214
			 0.228099  0.025360  0.973308
			 0.990279 -0.124408 -0.062212
			 0.943833 -0.177468 -0.278720
			 0.962166 -0.170168 -0.212791
			 0.958257 -0.219308 -0.183433
			 0.938472 -0.241056 -0.247310
			 0.989016 -0.012582 -0.147276
			 0.972837  0.052066 -0.225559
			 0.961887 -0.207009 -0.178662
			 0.988739 -0.017227 -0.148655
			 0.986179 -0.113332 -0.120857
			 0.998322 -0.046386 -0.034666
			 0.991711 -0.078526 -0.101697
			 0.995251 -0.096679 -0.011349
			 0.953661 -0.168969 -0.248958
			 0.993102 -0.108354  0.044808
			 0.949970 -0.216172 -0.225446
			 0.991572 -0.041586  0.122702
			 0.973946 -0.091531 -0.207489
			 0.958028  0.244160 -0.150228
			 0.984543  0.069207  0.160891
			 0.984323 -0.089420  0.152029
			 0.959308  0.279970 -0.036684
			 0.940398  0.313593  0.131571
			 0.996742 -0.032012  0.074025
			-0.234377  0.005845  0.972128
			-0.116222 -0.036759  0.992543
			-0.232173 -0.028700  0.972251
			 0.092727 -0.049374  0.994467
			 0.089294 -0.008598  0.995968
			 0.321548  0.094667  0.942149
			-0.093014  0.080232  0.992427
			 0.460615  0.133499  0.877503
			-0.110405 -0.049822  0.992637
			-0.002947 -0.088383  0.996082
			-0.254195 -0.019387  0.966959
			 0.876281  0.233411  0.421486
			 0.761775  0.627445  0.161283
			 0.504863  0.848777  0.157133
			 0.499567  0.842031  0.203512
			 0.761168  0.618566  0.194933
			 0.496765  0.866402  0.050730
			 0.788310  0.518357  0.331473
			 0.915993  0.346116  0.202881
			 0.804366  0.198015  0.560165
			 0.733186  0.237816  0.637089
			 0.578376  0.267388  0.770704
			 0.314707  0.284266  0.905622
			 0.668883  0.289397  0.684723
			 0.396054  0.074112  0.915232
			 0.373928  0.219165  0.901191
			 0.962853  0.199913  0.181519
			 0.940727  0.221357  0.256973
			 0.990846  0.128677  0.040818
			 0.658585  0.315094  0.683360
			 0.743299  0.241960  0.623668
			 0.908920  0.220226  0.354069
			 0.983000  0.062400 -0.172677
			 0.935668 -0.169152 -0.309700
			 0.867060 -0.252836 -0.429280
			 0.954126 -0.167709 -0.248028
			 0.916616  0.066790 -0.394150
			 0.923824  0.110819 -0.366428
			 0.843713  0.047202 -0.534716
			 0.789640 -0.009707 -0.613494
			 0.819251 -0.141917 -0.555596
			 0.986924  0.093921 -0.130992
			-0.096443  0.070294  0.992853
			-0.271110  0.045747  0.961461
			 0.967256 -0.113857 -0.226832
			 0.985261 -0.114402 -0.127177
			 0.972631 -0.074234 -0.220179
			 0.950660 -0.108092 -0.290794
			 0.939639 -0.213629 -0.267286
			 0.853618 -0.181318 -0.488324
			 0.953910  0.102288 -0.282122
			 0.997306 -0.005477 -0.073144
			 0.950277  0.222031 -0.218347
			 0.937592  0.277160 -0.210011
			 0.910593  0.259971 -0.321302
			 0.973099 -0.023791 -0.229156
			 0.981061 -0.096156 -0.168146
			 0.647197 -0.275761 -0.710698
			 0.751321 -0.237268 -0.615808
			 0.842141 -0.228024 -0.488674
			 0.829456  0.551500 -0.088600
			 0.798629  0.579087 -0.163862
			 0.834069  0.521486  0.179949
			 0.898251  0.438600  0.027842
			 0.786710  0.608789  0.102290
			-0.533146  0.003720  0.846015
			-0.455370 -0.019249  0.890094
			-0.435976 -0.080796  0.896324
			-0.331341 -0.056830  0.941798
			-0.211146 -0.009955  0.977404
			 0.082583  0.105837  0.990948
			 0.169435  0.240169  0.955830
			 0.236508  0.261944  0.935654
			-0.395274  0.127376  0.909689
			-0.312230  0.282423  0.907056
			-0.084018  0.259139  0.962179
			-0.219197 -0.096537  0.970893
			-0.385243 -0.108231  0.916446
			-0.483707 -0.041548  0.874243
			-0.545761 -0.057164  0.835989
			 0.748505  0.442813  0.493616
			 0.440250  0.870333  0.220684
			 0.364348  0.904937  0.219861
			 0.121702  0.977441  0.172622
			 0.569964  0.808406  0.147039
			-0.128466  0.928598  0.348141
			 0.497052  0.853767  0.154990
			 0.387232  0.860458  0.331155
			 0.657133  0.753513  0.019835
			 0.179846  0.975490  0.126789
			 0.547545  0.777907  0.308310
			 0.654951  0.643108  0.396801
			 0.618143  0.543341  0.568049
			 0.591512  0.425181  0.685080
			 0.446093  0.466210  0.763970
			-0.008987  0.363453  0.931569
			-0.039878  0.550174  0.834098
			 0.095912  0.531571  0.841566
			 0.354998  0.262163  0.897355
			-0.151513  0.105162  0.982845
			-0.060236  0.061706  0.996275
			-0.018219  0.200879  0.979447
			 0.992941  0.104900 -0.055351
			 0.985955  0.166544 -0.012479
			 0.908087  0.280623  0.310852
			 0.925566  0.291095  0.242058
			 0.970757  0.203679  0.127067
			 0.990649  0.105985 -0.085916
			 0.596800  0.273778  0.754239
			 0.859356  0.323259  0.396247
			 0.962288  0.096178 -0.254461
			 0.610419 -0.337351 -0.716647
			 0.481569 -0.275376 -0.832021
			 0.756899  0.130042 -0.640463
			 0.831860  0.194777 -0.519684
			 0.950491  0.133252 -0.280733
			 0.642842 -0.044476 -0.764706
			 0.554118 -0.001020 -0.832437
			 0.538461 -0.106703 -0.835867
			 0.352929 -0.242676 -0.903631
			 0.964556  0.187271 -0.185907
			-0.332999  0.055242  0.941308
			 0.821080 -0.175456 -0.543178
			 0.838709 -0.170953 -0.517052
			 0.829212 -0.191920 -0.524952
			 0.698068 -0.196738 -0.688473
			 0.636724 -0.215845 -0.740265
			 0.945846 -0.043758 -0.321652
			 0.887018 -0.161598 -0.432533
			 0.864056 -0.194549 -0.464282
			 0.731975 -0.174301 -0.658659
			 0.783200 -0.137702 -0.606330
			 0.952745  0.230470 -0.197890
			 0.793657  0.524246 -0.308667
			 0.816174  0.478461 -0.323937
			 0.888347  0.204495 -0.411121
			 0.328985 -0.346801 -0.878349
			 0.143030 -0.312517 -0.939082
			 0.331972 -0.263326 -0.905789
			 0.381655 -0.289056 -0.877944
			 0.565058 -0.285057 -0.774243
			 0.590193  0.774269 -0.228429
			-0.689855 -0.020481  0.723658
			-0.519904  0.040287  0.853274
			-0.727231 -0.048868  0.684651
			-0.788160 -0.053078  0.613177
			-0.721575 -0.007046  0.692301
			-0.737368 -0.002684  0.675486
			-0.724025 -0.001647  0.689771
			-0.581327 -0.086931  0.809013
			-0.320163 -0.040946  0.946477
			-0.539962  0.025286  0.841309
			-0.493428  0.240761  0.835801
			-0.317956  0.377881  0.869546
			-0.384648 -0.079212  0.919658
			-0.636674 -0.061441  0.768682
			 0.205767 -0.087211  0.974707
			-0.764602 -0.103519  0.636135
			-0.726035 -0.030748  0.686971
			-0.727923 -0.052713  0.683630
			-0.772763 -0.069356  0.630894
			-0.066983  0.987037  0.145847
			 0.201770  0.936197  0.287792
			-0.413874  0.900785  0.131513
			-0.203068  0.973849  0.101889
			 0.522931  0.847875 -0.087475
			-0.534138  0.837727  0.113622
			-0.470691  0.787895  0.397079
			-0.476215  0.797564  0.370285
			-0.497015  0.853685  0.155553
			 0.192884  0.946680  0.258057
			-0.244283  0.919557  0.307799
			 0.261626  0.965048 -0.015315
			 0.369742  0.843145  0.390382
			 0.352151  0.741732  0.570809
			 0.292528  0.591605  0.751286
			-0.213937  0.568572  0.794328
			-0.181444  0.734762  0.653607
			 0.016325  0.742790  0.669325
			 0.055684  0.216198  0.974760
			-0.460601  0.059500  0.885611
			-0.398064  0.090473  0.912886
			 0.981305  0.188384 -0.039407
			 0.967973  0.242878  0.063557
			 0.964931  0.253861 -0.066801
			 0.911302  0.364955  0.190621
			 0.565928  0.359618  0.741889
			-0.059563  0.238454  0.969325
			 0.827019  0.383264  0.411277
			 0.052283 -0.319823 -0.946033
			 0.248562 -0.380026 -0.890953
			 0.081679 -0.270155 -0.959346
			 0.102532 -0.288397 -0.952005
			 0.342820  0.064831 -0.937161
			 0.883738  0.262506 -0.387424
			 0.471267  0.168020 -0.865839
			 0.376727 -0.108161 -0.919988
			 0.129161 -0.051227 -0.990300
			 0.118977 -0.128412 -0.984558
			 0.194610 -0.183049 -0.963649
			-0.151148 -0.234327 -0.960336
			 0.931044  0.334627 -0.145538
			 0.924339  0.314586 -0.215945
			 0.472341 -0.226650 -0.851777
			 0.441088 -0.247957 -0.862530
			 0.514030 -0.238494 -0.823950
			 0.392411 -0.268911 -0.879603
			 0.266695 -0.158707 -0.950624
			 0.403674 -0.211268 -0.890176
			 0.271618 -0.258962 -0.926910
			 0.580636 -0.144069 -0.801315
			 0.838306 -0.009555 -0.545115
			 0.663596  0.007908 -0.748050
			 0.888937  0.334652 -0.312728
			 0.791295  0.531698 -0.301910
			 0.660778  0.657777 -0.361526
			 0.558831  0.721602 -0.408655
			 0.644580  0.638567 -0.420416
			 0.778820  0.263371 -0.569276
			 0.736818  0.159146 -0.657093
			 0.757686  0.549225 -0.352512
			 0.778192  0.396576 -0.486974
			-0.028012 -0.325454 -0.945143
			-0.250057 -0.287005 -0.924716
			 0.167973 -0.280997 -0.944894
			-0.156726 -0.315718 -0.935820
			 0.419976  0.847273 -0.325189
			 0.472504  0.802450 -0.364437
			-0.677802 -0.035028  0.734409
			-0.852550 -0.046913  0.520535
			-0.846322 -0.027486  0.531962
			-0.732970 -0.026042  0.679762
			-0.939372 -0.040947  0.340446
			-0.868176 -0.050461  0.493685
			-0.891198 -0.067194  0.448610
			-0.882459 -0.025242  0.469712
			-0.174699 -0.098977  0.979634
			-0.469083 -0.053677  0.881522
			-0.425315 -0.003214  0.905040
			-0.633008 -0.006458  0.774119
			-0.544665 -0.059236  0.836559
			-0.651980  0.044416  0.756935
			-0.406328  0.299195  0.863354
			-0.519433  0.293580  0.802496
			-0.246523  0.572018  0.782319
			-0.225351  0.589162  0.775954
			 0.755880 -0.052417  0.652609
			 0.746368  0.007819  0.665488
			-0.815042 -0.090750  0.572251
			-0.746814 -0.125611  0.653062
			-0.732334 -0.102312  0.673216
			-0.820013 -0.133613  0.556531
			-0.807371 -0.092118  0.582809
			-0.805457 -0.138176  0.576321
			-0.736655 -0.120656  0.665418
			-0.805556 -0.073095  0.587993
			-0.074924  0.943047  0.324113
			-0.456332  0.889798 -0.004559
			-0.224682  0.958199  0.177121
			 0.181625  0.933595 -0.308891
			-0.468162  0.836112  0.285903
			-0.588154  0.801307  0.109458
			-0.286445  0.932220  0.221168
			-0.363179  0.928226  0.080609
			-0.460823  0.883120 -0.087981
			-0.199486  0.979035 -0.041177
			 0.084657  0.902654  0.421959
			-0.042729  0.842997  0.536218
			-0.218504  0.651879  0.726161
			-0.113531  0.855808  0.504682
			-0.173023  0.842531  0.510103
			-0.272610  0.081553  0.958662
			-0.689750 -0.022807  0.723688
			-0.496859  0.063814  0.865482
			-0.622935  0.041183  0.781189
			-0.672976  0.005432  0.739644
			 0.959905  0.272319 -0.066523
			 0.971705  0.234191 -0.030723
			 0.936599  0.348335 -0.038011
			 0.649833  0.466131  0.600365
			 0.813611  0.469660  0.342719
			 0.917044  0.352686  0.186125
			 0.939052  0.343775  0.000689
			 0.899719  0.386189  0.203382
			 0.033108  0.340755  0.939569
			-0.461133  0.250925  0.851113
			-0.642522  0.122525  0.756408
			-0.040731 -0.292316 -0.955454
			-0.308528 -0.243506 -0.919519
			-0.118549 -0.254838 -0.959689
			 0.090056  0.073503 -0.993221
			-0.033553 -0.123857 -0.991733
			-0.119204 -0.002265 -0.992867
			-0.283857 -0.145482 -0.947766
			 0.845573  0.340983 -0.410776
			-0.126160  0.081933 -0.988621
			 0.505458  0.254387 -0.824500
			-0.220402  0.032823 -0.974857
			-0.029085 -0.153498 -0.987721
			-0.277305 -0.142488 -0.950157
			-0.350980 -0.189687 -0.916969
			-0.407933 -0.172266 -0.896613
			-0.488826 -0.244183 -0.837511
			 0.890743  0.400753 -0.214417
			 0.093197 -0.318144 -0.943450
			 0.064625 -0.288291 -0.955360
			 0.194861 -0.025843 -0.980490
			-0.002565 -0.109878 -0.993942
			-0.065919  0.079324 -0.994667
			-0.142839 -0.301137 -0.942822
			 0.402178  0.007799 -0.915528
			 0.473041  0.179840 -0.862491
			 0.489969  0.792258 -0.363671
			 0.180732  0.872820 -0.453344
			 0.215668  0.871719 -0.439993
			 0.608585  0.387851 -0.692240
			 0.666902  0.659825 -0.346228
			 0.556640  0.811212 -0.179131
			 0.653636  0.572646 -0.494809
			-0.394230 -0.298438 -0.869205
			-0.468760 -0.227950 -0.853407
			-0.368846 -0.252065 -0.894660
			-0.620814 -0.221616 -0.751982
			-0.523412 -0.244765 -0.816168
			-0.192163 -0.298178 -0.934967
			-0.403458 -0.327674 -0.854313
			 0.191589  0.890570 -0.412527
			-0.809067 -0.047111  0.585826
			 0.749031 -0.044907  0.661011
			 0.300000 -0.150861  0.941935
			-0.922277 -0.055713  0.382492
			-0.896741 -0.052202  0.439466
			-0.858935 -0.075178  0.506536
			-0.907575 -0.055473  0.416210
			-0.988795 -0.052570  0.139717
			-0.982342 -0.054949  0.178843
			-0.935757 -0.065595  0.346490
			-0.994148 -0.080117  0.072466
			-0.972842 -0.109061  0.204166
			-0.984297 -0.056410  0.167266
			-0.960235 -0.034874  0.277008
			-0.976990 -0.099268  0.188777
			-0.956655 -0.108572  0.270229
			-0.971769 -0.098896  0.214207
			-0.773577 -0.080010  0.628631
			-0.751338 -0.012865  0.659792
			-0.703241  0.108006  0.702700
			-0.666897  0.225584  0.710183
			-0.416460  0.352336  0.838105
			-0.317128  0.653775  0.687028
			-0.554697  0.558121  0.617101
			-0.148446  0.683195  0.714989
			-0.058808  0.813370  0.578766
			-0.159747  0.935860  0.314082
			 0.033588  0.923661  0.381735
			 0.764373 -0.099929  0.636984
			-0.894981 -0.164531  0.414654
			-0.917683 -0.101618  0.384097
			-0.810053 -0.065352  0.582703
			-0.367997  0.915069 -0.165004
			-0.050628  0.814815  0.577506
			-0.235903  0.922544 -0.305388
			-0.321890  0.836579 -0.443308
			-0.194110  0.958030  0.210950
			-0.162253  0.981232  0.104196
			-0.549060  0.835610  0.016984
			-0.468944  0.815536 -0.339105
			-0.535267  0.800649 -0.269166
			-0.158538  0.975316  0.153701
			-0.263705  0.962011 -0.070676
			 0.084278  0.889568  0.448961
			-0.858620 -0.083029  0.505843
			-0.664153  0.046826  0.746128
			-0.741460 -0.011846  0.670893
			 0.931902  0.321362 -0.168182
			 0.952061  0.305580  0.014154
			 0.954448  0.282308 -0.096600
			 0.947758  0.313492  0.058970
			 0.898659  0.424340 -0.111120
			 0.926258  0.332124  0.178153
			 0.891205  0.453019 -0.022977
			 0.562011  0.411846  0.717305
			 0.270571  0.389586  0.880349
			 0.690348  0.456727  0.561088
			 0.753779  0.525766  0.394191
			 0.866938  0.484467  0.117096
			 0.931564  0.344913 -0.114990
			-0.305928  0.222324  0.925732
			-0.207853  0.152435  0.966209
			-0.759509  0.179155  0.625339
			-0.516505  0.109071  0.849309
			-0.830541  0.180035  0.527057
			-0.801299  0.093291  0.590946
			-0.795211 -0.010160  0.606248
			-0.603993 -0.231240 -0.762706
			-0.463961 -0.138821 -0.874911
			-0.594892 -0.166945 -0.786277
			-0.562674 -0.194426 -0.803490
			 0.754789  0.387542 -0.529249
			 0.241874  0.185026 -0.952503
			 0.107005  0.094880 -0.989721
			-0.123946 -0.035207 -0.991664
			-0.342710 -0.122250 -0.931453
			-0.470661  0.021751 -0.882046
			-0.402963  0.064626 -0.912932
			 0.453428  0.104705 -0.885122
			-0.526337 -0.046193 -0.849020
			-0.603252 -0.208547 -0.769802
			-0.580768 -0.207234 -0.787250
			-0.645723 -0.211092 -0.733814
			-0.688043 -0.234591 -0.686706
			-0.667996 -0.226434 -0.708878
			 0.861996  0.460803 -0.211243
			-0.100301 -0.326024 -0.940026
			-0.248315 -0.351865 -0.902513
			-0.172232 -0.347308 -0.921799
			-0.162035  0.216751 -0.962686
			-0.151842  0.170148 -0.973650
			 0.103457  0.175474 -0.979033
			-0.341031 -0.124744 -0.931739
			-0.283791  0.070283 -0.956307
			-0.350160  0.190692 -0.917074
			-0.472377 -0.266977 -0.839990
			 0.083886  0.466316 -0.880632
			 0.261933  0.501824 -0.824357
			 0.474754  0.434072 -0.765631
			-0.038877  0.948098 -0.315592
			 0.138472  0.943569 -0.300837
			-0.220802  0.894017 -0.389847
			 0.413615  0.706289 -0.574524
			 0.212783  0.769624 -0.601999
			 0.479753  0.819494 -0.313475
			-0.566198 -0.277230 -0.776249
			-0.587336 -0.218392 -0.779321
			-0.716926 -0.191741 -0.670263
			-0.684969 -0.217135 -0.695464
			-0.824963 -0.177549 -0.536574
			-0.839382 -0.195368 -0.507218
			-0.312307 -0.316267 -0.895790
			-0.270075 -0.332157 -0.903732
			-0.616697 -0.302162 -0.726899
			-0.597570 -0.329943 -0.730785
			-0.377908 -0.346508 -0.858556
			-0.943036 -0.101611  0.316793
			-0.958016 -0.118279  0.261181
			-0.932323 -0.112186  0.343784
			-0.995615 -0.091297  0.020381
			-0.993779 -0.089814 -0.065856
			-0.972792 -0.071727  0.220299
			-0.988508 -0.133509  0.070904
			-0.982243 -0.173565 -0.071229
			-0.971847 -0.160368 -0.172611
			-0.967800 -0.182681  0.173178
			-0.992965 -0.100342  0.062858
			-0.988794 -0.149278 -0.001662
			-0.988129 -0.136693 -0.070108
			-0.987499 -0.155327  0.026802
			-0.753535  0.102814  0.649319
			-0.813141  0.184799  0.551952
			-0.710874  0.334897  0.618468
			-0.133017  0.917806  0.374085
			-0.737084  0.436385  0.516019
			-0.272339  0.906562  0.322454
			-0.063670  0.991201 -0.116043
			 0.080524  0.995259  0.054545
			-0.914775 -0.142467  0.378007
			-0.948075 -0.193917  0.252093
			-0.894368  0.003634  0.447317
			-0.568259  0.699790 -0.432869
			-0.566445  0.743754 -0.354922
			-0.522344  0.736921 -0.429074
			-0.159293  0.964962  0.208506
			-0.090505  0.967662  0.235456
			 0.029147  0.934003  0.356075
			 0.177300  0.949162  0.260110
			-0.256179  0.943785 -0.208908
			-0.037272  0.951766 -0.304553
			-0.382994  0.908929 -0.164813
			 0.311259  0.932594 -0.182718
			 0.234910  0.936816  0.259218
			-0.510725  0.760001 -0.401943
			-0.508607  0.716925 -0.476799
			-0.307933  0.867557 -0.390541
			-0.231922  0.891989 -0.388032
			 0.002437  0.999473 -0.032357
			-0.010966  0.979025  0.203443
			-0.830606 -0.088841  0.549729
			-0.969732 -0.146356  0.195447
			-0.940842 -0.156950  0.300306
			-0.928075 -0.127263  0.349974
			 0.943321  0.288049 -0.164841
			 0.949580  0.270729 -0.158126
			 0.966488  0.250617  0.055599
			 0.973803  0.201042 -0.106252
			 0.964274  0.116960  0.237690
			 0.968842  0.216661  0.120015
			 0.903175  0.428047  0.032416
			 0.868971  0.490528  0.065363
			 0.838155  0.508467 -0.197375
			 0.830827  0.480537 -0.280733
			 0.501542  0.371457  0.781330
			 0.219934  0.312663  0.924051
			 0.173139  0.309431  0.935027
			 0.052076  0.273753  0.960389
			 0.591942  0.471394  0.653753
			 0.841702  0.366500  0.396503
			 0.788667  0.558457  0.257159
			 0.641062  0.402426  0.653524
			 0.909307  0.414835  0.032758
			 0.911658  0.402113 -0.084771
			 0.983855  0.128271 -0.124801
			-0.341472 -0.017312  0.939733
			-0.326244  0.059496  0.943411
			-0.514444  0.001913  0.857522
			-0.026626  0.140707  0.989693
			-0.837900  0.004918  0.545802
			-0.884556  0.097601  0.456108
			-0.924906 -0.015431  0.379883
			-0.780873 -0.180516 -0.598040
			-0.755755 -0.191106 -0.626349
			-0.653481 -0.120094 -0.747356
			-0.674451 -0.189653 -0.713546
			 0.792127  0.363619 -0.490221
			 0.717410  0.262730 -0.645210
			 0.287217  0.079171 -0.954588
			 0.105002 -0.109876 -0.988383
			-0.312401 -0.200682 -0.928511
			-0.181961 -0.167117 -0.969001
			-0.354641 -0.237439 -0.904352
			-0.493524 -0.126458 -0.860490
			-0.734514  0.022380 -0.678224
			-0.723690  0.078969 -0.685593
			-0.558383  0.061047 -0.827334
			 0.570475  0.043683 -0.820152
			 0.304296 -0.076698 -0.949485
			 0.190120 -0.163699 -0.968017
			-0.695239  0.000592 -0.718778
			-0.714047 -0.195932 -0.672122
			-0.801962 -0.163409 -0.574590
			-0.802172 -0.201471 -0.562076
			-0.829305 -0.208446 -0.518463
			-0.839283 -0.216304 -0.498815
			-0.803600 -0.211205 -0.556435
			-0.464228 -0.346212 -0.815249
			-0.284058  0.170130 -0.943593
			-0.223923  0.479703 -0.848377
			-0.164767  0.298870 -0.939962
			 0.001390  0.225642 -0.974209
			-0.139181  0.534434 -0.833672
			-0.617654 -0.080249 -0.782345
			-0.475706  0.067171 -0.877036
			-0.341516  0.119981 -0.932186
			-0.683311 -0.258350 -0.682892
			-0.154483  0.799055 -0.581073
			-0.050341  0.715047 -0.697261
			-0.619011  0.724538 -0.303101
			-0.358051  0.913182 -0.194673
			-0.337497  0.932278 -0.130205
			-0.719836 -0.247569 -0.648494
			-0.870318 -0.163912 -0.464412
			-0.911890 -0.174456 -0.371513
			-0.909437 -0.185013 -0.372417
			-0.917577 -0.153037 -0.366923
			-0.811594 -0.259127 -0.523611
			-0.895160 -0.255891 -0.364978
			-0.824900 -0.259161 -0.502370
			-0.784042 -0.256689 -0.565146
			-0.777562 -0.267718 -0.568969
			-0.789866 -0.280792 -0.545222
			-0.986578 -0.114674 -0.116252
			-0.967555 -0.134430 -0.213931
			-0.972502 -0.104513 -0.208128
			-0.948706 -0.155599 -0.275221
			-0.974800 -0.222794  0.011310
			-0.955370 -0.265882 -0.128743
			-0.959132 -0.254109  0.124478
			-0.975410 -0.130254 -0.177792
			-0.935259 -0.188646 -0.299507
			-0.949526 -0.177602 -0.258569
			-0.947987 -0.147718 -0.281959
			-0.986416 -0.155062 -0.054210
			-0.936817  0.119789  0.328670
			-0.891729  0.296578  0.341848
			-0.418095  0.812511  0.406229
			-0.810028  0.451638  0.374003
			-0.690014  0.592477  0.415754
			-0.631084  0.612634  0.475828
			 0.099682  0.985834 -0.134889
			-0.072927  0.971688  0.224730
			 0.247748  0.963029  0.105814
			-0.955378 -0.062226  0.288759
			-0.954989 -0.272816  0.116480
			-0.978716 -0.145802  0.144417
			-0.661973  0.689188 -0.294638
			 0.680898  0.707524  0.189176
			 0.234087  0.912003  0.336828
			 0.830462  0.508116  0.228364
			 0.253605  0.879661  0.402345
			-0.155768  0.959823 -0.233401
			 0.085724  0.969921 -0.227824
			 0.269176  0.896602 -0.351639
			 0.519645  0.853581  0.036998
			 0.528628  0.808440 -0.258801
			 0.480106  0.792589 -0.375900
			 0.408498  0.859486  0.307267
			 0.298257  0.882798  0.362919
			-0.417490  0.894529 -0.159752
			 0.124115  0.988711 -0.083939
			 0.216558  0.950516  0.222760
			-0.982256 -0.186308 -0.021489
			-0.973796 -0.210285  0.086614
			-0.954879 -0.172623  0.241676
			-0.976319 -0.167546  0.136855
			-0.972744 -0.225903  0.052310
			-0.969183 -0.240175  0.054765
			 0.994418  0.079280  0.069620
			 0.998580 -0.036428 -0.038862
			 0.950936 -0.000750  0.309387
			 0.960138 -0.139517  0.242218
			 0.993223  0.027587  0.112899
			 0.923101  0.255349 -0.287544
			 0.890327  0.387398 -0.239251
			 0.462943  0.201153  0.863262
			 0.285314  0.258121  0.923022
			 0.958911  0.245021  0.143021
			 0.778550  0.170187  0.604066
			 0.961534  0.069982  0.265622
			 0.999907 -0.011578  0.007274
			 0.978219 -0.186153 -0.091837
			-0.517373 -0.006733  0.855734
			-0.618379 -0.059885  0.783595
			-0.024232 -0.145439  0.989070
			-0.136280  0.008143  0.990637
			-0.294784 -0.081150  0.952112
			-0.177869 -0.153317  0.972037
			-0.393806  0.058382  0.917338
			-0.193050 -0.071718  0.978564
			 0.283046  0.002557  0.959103
			-0.802556 -0.132208  0.581743
			-0.951471 -0.175196  0.253001
			-0.968891 -0.063344  0.239244
			-0.971428 -0.033516  0.234958
			-0.978584 -0.054825  0.198411
			-0.823368 -0.172673 -0.540601
			-0.898998 -0.165782 -0.405363
			 0.758549  0.205362 -0.618410
			-0.020137 -0.319667 -0.947316
			-0.157593 -0.312114 -0.936883
			-0.301446 -0.330488 -0.894376
			-0.440011 -0.302584 -0.845478
			-0.697900 -0.174819 -0.694531
			-0.938050  0.012457 -0.346277
			-0.869678 -0.091102 -0.485140
			-0.906617 -0.016952 -0.421613
			 0.381550 -0.288730 -0.878097
			 0.720357 -0.008110 -0.693556
			 0.578348 -0.247294 -0.777406
			 0.006562 -0.348268 -0.937372
			-0.850547 -0.246140 -0.464741
			-0.964483 -0.146123 -0.220049
			-0.936814 -0.259480 -0.234628
			-0.918244 -0.195844 -0.344198
			 0.610164  0.069576 -0.789214
			-0.213407  0.647656 -0.731437
			-0.004284  0.391146 -0.920319
			-0.180950  0.763142 -0.620381
			 0.944476  0.078424 -0.319084
			-0.758728 -0.212784 -0.615674
			-0.557529 -0.061328 -0.827889
			-0.559368  0.021543 -0.828639
			-0.224571  0.050662 -0.973140
			-0.677716  0.692512 -0.247242
			-0.535186  0.833553 -0.136985
			-0.236260  0.969802  0.060543
			-0.223973  0.974020  0.033492
			-0.937944 -0.140413 -0.317090
			-0.940973 -0.154243 -0.301295
			-0.837896 -0.288395 -0.463421