<?xml version="1.0"?>
<VTKFile type="PolyData" version="0.1" byte_order="LittleEndian" compressor="vtkZLibDataCompressor">
	<PolyData>
		<Piece NumberOfPoints="2925" NumberOfVerts="0" NumberOfLines="0" NumberOfStrips="0" NumberOfPolys="5846">
		<PointData Normals="Normals">
		<DataArray type="Float32" Name="Normals" NumberOfComponents="3" format="ascii">
			 0.873152  0.278872  0.399795
			 0.905707  0.334063  0.260954
			 0.904712  0.333929  0.264552
			 0.895073  0.250739  0.368746
			 0.879354  0.273537  0.389761
			 0.807277  0.212824  0.550463
			 0.854519  0.249455  0.455597
			 0.858347  0.228471  0.459393
			 0.930239  0.295105  0.218101
			 0.929259  0.268243  0.254015
			 0.934367  0.344687  0.090275
			 0.957485  0.263281  0.117920
			 0.943153  0.291798  0.159110
			 0.923434  0.282795  0.259417
			 0.923055  0.279177  0.264630
			 0.857046  0.218839  0.466456
			 0.914373  0.263054  0.307775
			 0.932601  0.217093  0.288315
			 0.841461  0.235700  0.486198
			 0.803599  0.198359  0.561144
			 0.948910  0.197132  0.246393
			 0.927682  0.273783  0.253867
			 0.875874  0.310185  0.369636
			 0.853070  0.260335  0.452213
			 0.770493  0.197917  0.605945
			 0.778115  0.176852  0.602711
			 0.770472  0.163405  0.616175
			 0.785152  0.202115  0.585394
			 0.809727  0.181148  0.558147
			 0.755131  0.263052  0.600484
			 0.975741  0.165241  0.143615
			 0.943570  0.303482  0.132571
			 0.991346  0.126362  0.035567
			 0.938093  0.266339  0.221461
			 0.905646  0.316223  0.282503
			 0.995928  0.078458  0.044406
			 0.860747  0.286663  0.420641
			 0.949117  0.306279  0.073277
			 0.958640  0.273224  0.079732
			 0.947942  0.256477  0.188749
			 0.945630  0.287578  0.151928
			 0.922728  0.315295  0.221726
			 0.929427  0.306137  0.206025
			 0.922938  0.275807  0.268545
			 0.909274  0.318765  0.267599
			 0.805295  0.182620  0.564048
			 0.976438  0.148490  0.156590
			 0.995630  0.069509  0.062361
			 0.797730  0.218860  0.561896
			 0.819373  0.193456  0.539632
			 0.770695  0.199355  0.605216
			 0.824711  0.269028  0.497469
			 0.687429  0.111079  0.717706
			 0.716643  0.158378  0.679220
			 0.751303  0.158182  0.640720
			 0.992830  0.093606  0.074337
			 0.947793  0.253042  0.194059
			 0.933739  0.313631  0.172533
			 0.966135  0.209142  0.151138
			 0.949040  0.272316  0.158643
			 0.930603  0.288788  0.224898
			 0.812992  0.371740  0.448167
			 0.870581  0.440051  0.220098
			 0.851827  0.420290  0.312646
			 0.816540  0.247961  0.521323
			 0.633073  0.169783  0.755243
			 0.676377  0.207918  0.706601
			 0.755095  0.231517  0.613377
			 0.710006  0.116512  0.694489
			 0.622396  0.117385  0.773850
			 0.776399  0.231666  0.586119
			 0.729862  0.144194  0.668213
			 0.777187  0.252896  0.576215
			 0.810407  0.160415  0.563478
			 0.906174  0.327711  0.267309
			 0.945017  0.325130  0.035114
			 0.935774  0.306605  0.174125
			 0.886015  0.301454  0.352283
			 0.813569  0.277655  0.510894
			 0.859418  0.301275  0.413079
			 0.941910  0.322334 -0.094370
			 0.953047  0.298530 -0.050813
			 0.958049  0.269362 -0.097909
			 0.965856  0.246009 -0.081251
			 0.957423  0.276338  0.083534
			 0.945159  0.323960 -0.041529
			 0.941589  0.322090  0.098326
			 0.919078  0.319742  0.230350
			 0.932087  0.292587  0.213559
			 0.924123  0.276768  0.263430
			 0.907142  0.316387  0.277475
			 0.649147  0.126431  0.750082
			 0.640859  0.244070  0.727825
			 0.729238  0.241241  0.640324
			 0.588772  0.216015  0.778900
			 0.750509  0.280387  0.598431
			 0.506413  0.133522  0.851890
			 0.594522  0.041136  0.803026
			 0.575198  0.090686  0.812972
			 0.923450  0.352321  0.152019
			 0.925929  0.324967  0.192488
			 0.823829  0.397978  0.403633
			 0.833707  0.304586  0.460609
			 0.774172  0.401842  0.489061
			 0.733405  0.505014  0.455059
			 0.757749  0.517602  0.397371
			 0.884173  0.432244  0.177211
			 0.842206  0.485066  0.235371
			 0.863894  0.462830  0.198687
			 0.833534  0.420278  0.358590
			 0.862918  0.441505  0.245860
			 0.466351  0.123076  0.875996
			 0.445459  0.106014  0.889003
			 0.793849  0.258748  0.550321
			 0.773169  0.236062  0.588629
			 0.668079  0.204740  0.715369
			 0.615338  0.080922  0.784099
			 0.437818  0.045943  0.897889
			 0.590171  0.074993  0.803787
			 0.950899  0.303089 -0.062676
			 0.938327  0.318143 -0.135379
			 0.888933  0.302916  0.343570
			 0.924786  0.317261  0.210040
			 0.936030  0.351318 -0.020575
			 0.846817  0.272618  0.456706
			 0.796198  0.246019  0.552759
			 0.907055  0.302696 -0.292621
			 0.897083  0.307853 -0.316968
			 0.910821  0.284681 -0.298935
			 0.927449  0.249223 -0.278795
			 0.891680  0.190806 -0.410487
			 0.948897  0.233371 -0.212443
			 0.911806  0.287208 -0.293465
			 0.932505  0.359970 -0.029252
			 0.887254  0.399866 -0.229971
			 0.927807  0.358903  0.101800
			 0.904972  0.379443  0.192478
			 0.672471  0.234705  0.701923
			 0.707947  0.230975  0.667430
			 0.703307  0.172389  0.689668
			 0.918159  0.126244  0.375561
			 0.480478  0.537718  0.692821
			 0.525637  0.404040  0.748637
			 0.425271  0.322855  0.845523
			 0.984667  0.107511  0.137375
			 0.923760  0.260032  0.281159
			 0.370647  0.078277  0.925469
			 0.302019  0.070288  0.950707
			 0.214004  0.042340  0.975915
			 0.159272  0.027702  0.986846
			 0.605238  0.193834  0.772085
			 0.520730  0.202395  0.829383
			 0.421760  0.142917  0.895373
			 0.358578 -0.046605  0.932336
			 0.332772 -0.049044  0.941731
			 0.903270  0.427887  0.031882
			 0.902556  0.430242  0.016854
			 0.714901  0.401074  0.572762
			 0.915415  0.221699  0.335955
			 0.672895  0.520204  0.525927
			 0.559153  0.656571  0.506224
			 0.819679  0.507719  0.265232
			 0.671424  0.681294  0.291596
			 0.550105  0.753566  0.359892
			 0.848518  0.506096  0.154545
			 0.873206  0.480857  0.079297
			 0.879330  0.444825  0.170027
			 0.839746  0.526718  0.131886
			 0.870800  0.461101  0.170567
			 0.183945 -0.005558  0.982921
			 0.248168  0.064768  0.966549
			 0.484770  0.100538  0.868844
			 0.601980  0.147421  0.784784
			 0.191162  0.086419  0.977747
			 0.326887  0.071825  0.942330
			 0.250170  0.019947  0.967996
			 0.862861  0.277176  0.422663
			 0.857154  0.278362  0.433362
			 0.927296  0.312701  0.205768
			 0.784670  0.246454  0.568818
			 0.647112  0.187555  0.738965
			 0.500187 -0.010177  0.865858
			 0.262788 -0.057377  0.963146
			 0.328109  0.010977  0.944576
			 0.411907 -0.042482  0.910235
			 0.906657  0.325658 -0.268178
			 0.791480  0.295044 -0.535266
			 0.884079  0.299667  0.358615
			 0.926316  0.308192  0.216693
			 0.935043  0.294433  0.197493
			 0.924300  0.354998  0.140161
			 0.904427  0.306229 -0.297045
			 0.894145  0.317312 -0.315940
			 0.945527  0.325378  0.010349
			 0.810593  0.266957  0.521223
			 0.916175  0.304998  0.259999
			 0.785159  0.275157 -0.554810
			 0.784077  0.263197 -0.562095
			 0.817783  0.239016 -0.523548
			 0.710126  0.150741 -0.687748
			 0.867532  0.180155 -0.463608
			 0.896007  0.249321 -0.367437
			 0.873024  0.337035 -0.352473
			 0.864244  0.455829 -0.212843
			 0.836645  0.471610 -0.278584
			 0.779312  0.454186 -0.431727
			 0.778971  0.498567 -0.380309
			 0.905020  0.128345  0.405544
			 0.462393  0.241668  0.853106
			 0.974340  0.065449  0.215354
			 0.642253  0.514353  0.568289
			 0.387576  0.444123  0.807799
			 0.570730  0.477447  0.668065
			 0.284270  0.320119  0.903722
			 0.156443  0.373895  0.914181
			 0.288877  0.503610  0.814203
			 0.221726 -0.013340  0.975018
			 0.195577  0.042300  0.979776
			 0.318335 -0.016639  0.947832
			 0.170553 -0.100834  0.980176
			 0.378059  0.092265  0.921172
			 0.253721  0.062165  0.965278
			 0.512593  0.111060  0.851419
			 0.504213  0.116885  0.855633
			 0.038374 -0.204867  0.978037
			 0.021202 -0.182993  0.982886
			-0.001722 -0.153324  0.988174
			 0.850098  0.483471 -0.208781
			 0.816717  0.532494 -0.222315
			 0.809071  0.571965 -0.135134
			 0.850940  0.492493 -0.182627
			 0.458021  0.643459  0.613333
			 0.343479  0.784330  0.516574
			 0.421880  0.784824  0.453947
			 0.750955  0.633129  0.187654
			 0.648960  0.733236  0.203020
			 0.554443  0.801259  0.224894
			 0.534817  0.828756  0.164728
			 0.413603  0.831697  0.370423
			 0.795594  0.603853  0.048908
			 0.823402  0.566919  0.024756
			 0.811651  0.582582  0.042660
			 0.638288  0.766966  0.065962
			-0.023711 -0.070158  0.997254
			 0.218143  0.000147  0.975917
			 0.177915  0.007049  0.984021
			 0.078054  0.041380  0.996090
			 0.335085  0.047892  0.940970
			 0.532412  0.128522  0.836672
			 0.213122  0.035380  0.976385
			-0.005533  0.032501  0.999456
			-0.044229  0.051330  0.997702
			 0.318967  0.050542  0.946417
			 0.831403  0.269101  0.486162
			 0.835430  0.289089  0.467424
			 0.866779  0.299015  0.399104
			 0.734055  0.233836  0.637561
			 0.631952  0.201400  0.748381
			 0.514742  0.127981  0.847739
			 0.579927  0.153015  0.800169
			 0.275297 -0.120790  0.953741
			 0.183889 -0.019850  0.982747
			 0.097629 -0.109985  0.989127
			 0.816719  0.303063 -0.491042
			 0.661401  0.289625 -0.691857
			 0.565546  0.245615 -0.787293
			 0.643715  0.209539 -0.736020
			 0.926793  0.290942  0.237504
			 0.890756  0.282674  0.355878
			 0.945708  0.287086  0.152372
			 0.761163  0.288929 -0.580647
			 0.779108  0.287793 -0.556926
			 0.905562  0.293109 -0.306666
			 0.951213  0.279922 -0.129764
			 0.959773  0.280729  0.005254
			 0.752375  0.227309 -0.618273
			 0.664948  0.133150 -0.734925
			 0.548532  0.114968 -0.828188
			 0.650160  0.061617 -0.757294
			 0.810691  0.143537 -0.567606
			 0.820572  0.296019 -0.488912
			 0.813204  0.481943 -0.326237
			 0.707038  0.549162 -0.445554
			 0.643842  0.570184 -0.510252
			 0.673281  0.410235 -0.615142
			 0.621056  0.560585 -0.547754
			 0.264876  0.218641  0.939168
			 0.234012  0.300364  0.924673
			 0.395321  0.565309  0.723981
			 0.294592  0.580190  0.759339
			-0.013029  0.340944  0.939994
			-0.071956  0.357587  0.931103
			 0.179738  0.428073  0.885690
			 0.340763  0.602513  0.721706
			 0.229684  0.654033  0.720754
			 0.033714 -0.063898  0.997387
			-0.024837 -0.184933  0.982437
			 0.242952 -0.044406  0.969021
			-0.098786 -0.274271  0.956565
			 0.117123 -0.115908  0.986330
			 0.352733  0.076890  0.932560
			 0.346026  0.093673  0.933537
			 0.573233  0.116723  0.811036
			 0.978235  0.013567  0.207057
			 0.891442  0.046106  0.450783
			 0.893097  0.026860  0.449061
			 0.323449  0.116496  0.939047
			-0.189171 -0.312048  0.931043
			-0.120923 -0.271859  0.954710
			-0.185929 -0.184803  0.965028
			-0.245504 -0.271568  0.930580
			-0.264246 -0.228687  0.936951
			-0.199881 -0.286452  0.937013
			 0.776578  0.537471 -0.328713
			 0.929833  0.317605 -0.185844
			 0.825408  0.508526 -0.245159
			 0.641953  0.649227 -0.407923
			 0.684640  0.641939 -0.345228
			 0.747622  0.656260 -0.101905
			 0.271641  0.733200  0.623401
			 0.249609  0.831086  0.496982
			 0.236602  0.893168  0.382453
			 0.377811  0.866662  0.325815
			 0.568774  0.810260  0.141330
			 0.853083  0.517576  0.066063
			 0.913984  0.400521  0.064937
			 0.445490  0.873108  0.198045
			 0.695267  0.717051 -0.049413
			 0.514576  0.857405  0.008289
			 0.479322  0.874019  0.079630
			 0.633383  0.764133  0.122175
			-0.196742 -0.043761  0.979478
			-0.318371 -0.130316  0.938966
			-0.412334 -0.114758  0.903776
			-0.353089 -0.184294  0.917259
			 0.495071  0.082332  0.864943
			 0.449064  0.065584  0.891089
			 0.164541 -0.035568  0.985729
			 0.265410 -0.006192  0.964116
			 0.077533 -0.015198  0.996874
			-0.129245 -0.044879  0.990597
			-0.275685 -0.037262  0.960526
			 0.894535  0.318700  0.313429
			 0.887883  0.286845  0.359699
			 0.777636  0.244272  0.579321
			 0.911393  0.322160  0.256079
			 0.674694  0.201494  0.710062
			 0.662529  0.163872  0.730891
			 0.352012  0.051285  0.934589
			 0.313058  0.050657  0.948382
			 0.584075  0.113391  0.803740
			 0.401871  0.111302  0.908907
			 0.367196  0.105223  0.924173
			 0.596980  0.279057 -0.752159
			 0.540879  0.197073 -0.817687
			 0.402591  0.188761 -0.895706
			 0.477411  0.212184 -0.852676
			 0.675492  0.165338 -0.718592
			 0.939488  0.289210  0.183628
			 0.666271  0.300175 -0.682626
			 0.926635  0.305167 -0.219591
			 0.825862  0.305974 -0.473636
			 0.947012  0.321130  0.006612
			 0.949470  0.307628 -0.062224
			 0.873263  0.077672 -0.481018
			 0.971599  0.045077 -0.232301
			 0.521330  0.042263 -0.852308
			 0.511957  0.122486 -0.850234
			 0.487687 -0.021166 -0.872762
			 0.569787 -0.039157 -0.820859
			 0.724272  0.043146 -0.688164
			 0.745004  0.000058 -0.667059
			 0.753394  0.090457 -0.651318
			 0.729105  0.270889 -0.628511
			 0.642013  0.619952 -0.451087
			 0.906612  0.356548 -0.225673
			 0.542526  0.609765 -0.577800
			 0.582669  0.595644 -0.552906
			 0.587604  0.133941 -0.797986
			 0.607100  0.454856 -0.651564
			 0.601332  0.551822 -0.577834
			 0.407566  0.135919  0.903004
			-0.101858  0.284411  0.953276
			-0.007879  0.213081  0.977003
			-0.241290  0.321759  0.915560
			-0.234976  0.306745  0.922330
			-0.023451  0.419168  0.907606
			-0.335104  0.381771  0.861369
			 0.153769  0.509966  0.846339
			 0.012086  0.729780  0.683575
			-0.002240  0.586938  0.809629
			 0.078561  0.814544  0.574757
			-0.245027 -0.389864  0.887675
			 0.102638  0.007732  0.994689
			-0.245042 -0.376558  0.893397
			-0.236035 -0.407975  0.881954
			-0.105338 -0.171412  0.979552
			-0.236585 -0.304677  0.922605
			 0.086944 -0.076874  0.993243
			 0.069164  0.007086  0.997580
			 0.128532  0.063161  0.989692
			 0.301978  0.087904  0.949254
			 0.896668  0.068744  0.437333
			-0.326628 -0.318940  0.889714
			-0.404081 -0.264728  0.875578
			-0.394311 -0.316996  0.862573
			-0.297746 -0.403209  0.865315
			 0.940875  0.278068 -0.193476
			 0.679406  0.582678 -0.445975
			 0.577033  0.651995 -0.491868
			 0.695295  0.558384 -0.452518
			 0.776058  0.548477 -0.311298
			 0.631189  0.757001 -0.168969
			 0.687524  0.703544 -0.179825
			 0.564171  0.797859  0.212446
			 0.275317  0.948404  0.157257
			 0.247404  0.949294  0.193991
			 0.324431  0.906932  0.268736
			 0.061464  0.860810  0.505201
			-0.035627  0.880480  0.472742
			 0.164988  0.896697  0.410747
			 0.863068  0.496945  0.090331
			 0.520822  0.849869 -0.080421
			 0.443173  0.896004  0.027813
			 0.353846  0.929614 -0.103005
			 0.432860  0.901461  0.000057
			 0.435909  0.890170  0.132590
			-0.538405 -0.137982  0.831313
			-0.486754 -0.174377  0.855957
			-0.647405 -0.190503  0.737953
			-0.569191 -0.251774  0.782708
			 0.077866 -0.066570  0.994739
			-0.101783 -0.088433  0.990868
			-0.021218 -0.065019  0.997658
			 0.162923  0.018995  0.986456
			 0.017702 -0.108765  0.993910
			-0.321228 -0.121748  0.939143
			 0.931167  0.311733  0.189080
			 0.872167  0.272311  0.406413
			 0.908044  0.293654  0.298704
			 0.820568  0.255727  0.511147
			 0.699600  0.226091  0.677822
			 0.766468  0.231826  0.598986
			 0.943670  0.309513  0.117001
			 0.909614  0.299962  0.287445
			 0.589191  0.195329  0.784029
			 0.653371  0.226834  0.722255
			 0.251698  0.051179  0.966452
			 0.059781 -0.038780  0.997458
			 0.352405  0.046130  0.934710
			 0.206372  0.051518  0.977116
			 0.396885  0.091744  0.913272
			 0.247903  0.034744  0.968162
			 0.513001  0.254715 -0.819726
			 0.427520  0.154314 -0.890738
			 0.518995  0.185636 -0.834376
			 0.544075  0.196628 -0.815671
			 0.798354  0.097443 -0.594252
			 0.419294  0.143517 -0.896435
			 0.385557  0.161139 -0.908504
			 0.405511  0.215295 -0.888374
			 0.324202  0.161636 -0.932077
			 0.462310  0.119081 -0.878686
			 0.878168  0.112146 -0.465020
			 0.686014  0.284492 -0.669663
			 0.498543  0.252973 -0.829132
			 0.902453  0.300622 -0.308552
			 0.939837  0.317314 -0.126559
			 0.849956  0.306105 -0.428807
			 0.791933  0.298537 -0.532651
			 0.947455  0.316412 -0.047033
			 0.667279  0.156832 -0.728109
			 0.436410  0.092612 -0.894969
			 0.338164 -0.003421 -0.941081
			 0.302283 -0.097363 -0.948233
			 0.431909 -0.181535 -0.883459
			 0.637697 -0.085182 -0.765563
			 0.666842 -0.103863 -0.737926
			 0.643454 -0.089992 -0.760176
			 0.603210 -0.069391 -0.794558
			 0.567887  0.658625 -0.493676
			 0.610218  0.558013 -0.562365
			 0.503138  0.626054 -0.595742
			 0.690175  0.526781 -0.496145
			 0.713165  0.564219 -0.415995
			 0.744968  0.547140 -0.381655
			 0.494098 -0.151766 -0.856058
			 0.459445  0.060696 -0.886130
			 0.400693 -0.051577 -0.914759
			 0.465886 -0.062639 -0.882625
			 0.460717  0.231742 -0.856759
			 0.525973  0.394598 -0.753422
			 0.507704  0.511982 -0.692901
			 0.654982  0.498983 -0.567464
			 0.001366  0.103769  0.994601
			-0.230751  0.128458  0.964496
			-0.206694  0.168862  0.963724
			-0.210451  0.301637  0.929906
			-0.257030  0.345599  0.902495
			-0.245585  0.353112  0.902773
			-0.127873  0.418516  0.899162
			-0.289509  0.523676  0.801216
			-0.496997  0.500330  0.708988
			-0.328637  0.514274  0.792162
			-0.261397  0.474595  0.840494
			-0.236589  0.706927  0.666543
			-0.214679  0.752412  0.622727
			-0.223030  0.801655  0.554624
			-0.226083 -0.461341  0.857934
			-0.115863  0.075762  0.990372
			-0.199532 -0.412162  0.888994
			-0.271741 -0.344502  0.898596
			-0.275619 -0.381620  0.882270
			-0.102465 -0.023871  0.994450
			-0.253359 -0.104833  0.961675
			-0.309655 -0.368656  0.876474
			-0.550195 -0.358724  0.754058
			-0.427302 -0.418376  0.801482
			-0.174917 -0.430943  0.885264
			 0.693188  0.537156 -0.480576
			 0.705974  0.561507 -0.431638
			 0.663700  0.618311 -0.420944
			 0.674276  0.659055 -0.333165
			 0.749687  0.518099 -0.411757
			 0.663406  0.717018 -0.213956
			 0.478566  0.855716 -0.196788
			 0.277975  0.957128  0.081461
			 0.330824  0.931239  0.152807
			 0.331591  0.940996  0.067632
			 0.424448  0.905438 -0.005095
			 0.279038  0.959024 -0.049107
			 0.128794  0.988174  0.083217
			 0.113127  0.991224 -0.068397
			-0.215607  0.824938  0.522486
			 0.005891  0.884093  0.467273
			-0.022659  0.937410  0.347489
			 0.018084  0.979871  0.198812
			 0.209240  0.917423 -0.338458
			 0.143152  0.964406 -0.222327
			 0.204249  0.976101 -0.074226
			-0.627966 -0.214331  0.748145
			-0.721108 -0.236572  0.651181
			-0.721466 -0.191668  0.665395
			-0.687018 -0.264060  0.676963
			-0.619610 -0.296111  0.726912
			-0.129875 -0.115671  0.984760
			-0.376289 -0.178582  0.909129
			-0.219890 -0.136412  0.965940
			-0.005395 -0.022107  0.999741
			 0.114580  0.000288  0.993414
			 0.182210  0.025813  0.982921
			-0.336941 -0.181439  0.923878
			 0.921591  0.320410  0.219106
			 0.938989  0.311860  0.145064
			 0.899168  0.278198  0.337792
			 0.891880  0.271347  0.361829
			 0.814954  0.237860  0.528463
			 0.723413  0.210007  0.657701
			 0.608155  0.207770  0.766145
			 0.539690  0.188339  0.820526
			 0.136124  0.002325  0.990689
			-0.085524 -0.027155  0.995966
			-0.343598 -0.158817  0.925590
			-0.083188 -0.123576  0.988842
			 0.399456  0.092738  0.912050
			 0.292807  0.097811  0.951156
			 0.234035  0.041599  0.971338
			 0.456149  0.130879  0.880227
			 0.011675 -0.006344  0.999912
			 0.225177  0.072971  0.971581
			 0.353562  0.097115  0.930356
			 0.120860 -0.018502  0.992497
			 0.133080  0.013224  0.991017
			 0.336624  0.093923 -0.936943
			 0.893062  0.080282 -0.442714
			 0.871244  0.067373 -0.486205
			 0.239377  0.142377 -0.960431
			 0.185705  0.100777 -0.977424
			 0.227021  0.065310 -0.971697
			 0.250181  0.200499 -0.947211
			 0.227782  0.149185 -0.962216
			 0.243117  0.121816 -0.962318
			 0.377072  0.128026 -0.917293
			 0.222671  0.131326 -0.966008
			 0.503019  0.268482 -0.821516
			 0.933806  0.313871 -0.171729
			 0.785481  0.301665 -0.540387
			 0.912555  0.313203 -0.262957
			 0.647583  0.282287 -0.707778
			 0.944676  0.320765 -0.068541
			 0.307531 -0.031354 -0.951021
			 0.256764 -0.035515 -0.965822
			 0.263632  0.043266 -0.963653
			 0.170012 -0.128270 -0.977058
			 0.144431 -0.198210 -0.969460
			 0.229196 -0.209028 -0.950672
			 0.333433 -0.265191 -0.904708
			 0.381360 -0.286955 -0.878761
			 0.490705 -0.265412 -0.829918
			 0.513384 -0.207096 -0.832795
			 0.797784  0.454882 -0.395757
			 0.714190  0.494727 -0.495153
			 0.403831 -0.357264 -0.842189
			 0.411413 -0.233651 -0.880992
			 0.363881  0.188638 -0.912144
			 0.246885 -0.137742 -0.959205
			 0.255975  0.060837 -0.964767
			 0.409614  0.375883 -0.831221
			 0.335531  0.432962 -0.836638
			 0.366568  0.501709 -0.783528
			 0.519047  0.497553 -0.695004
			 0.530997  0.540641 -0.652494
			 0.562244  0.477416 -0.675245
			-0.261831 -0.003256  0.965108
			-0.184137  0.294475  0.937751
			-0.110629  0.153090  0.982000
			-0.125031  0.298517  0.946179
			 0.001502  0.389247  0.921132
			-0.214513  0.699855  0.681313
			-0.356388  0.510350  0.782643
			-0.059438  0.496073  0.866244
			-0.006254  0.488749  0.872402
			-0.341757  0.742955  0.575517
			-0.082117 -0.406900  0.909774
			-0.200970 -0.292441  0.934928
			-0.117574 -0.377772  0.918403
			-0.112900 -0.423810  0.898687
			-0.407746 -0.423022  0.809194
			-0.398619 -0.422410  0.814047
			-0.439402 -0.519350  0.732941
			-0.628053 -0.296375  0.719521
			-0.293883 -0.487791  0.822005
			-0.272335 -0.520093  0.809529
			 0.754278  0.429418 -0.496654
			 0.443757  0.747499 -0.494292
			 0.472443  0.664459 -0.579044
			 0.486351  0.777827 -0.398054
			 0.606995  0.563072 -0.560809
			 0.381639  0.856801 -0.346761
			 0.131702  0.903984 -0.406776
			 0.392087  0.913464 -0.108866
			 0.473085  0.860229 -0.190254
			-0.038860  0.950107 -0.309493
			-0.209814  0.956653 -0.201974
			 0.064753  0.795689  0.602234
			 0.019354  0.850241  0.526038
			-0.182886  0.954652  0.234929
			-0.264683  0.956069  0.125993
			-0.312736  0.949831  0.004168
			-0.029725  0.890686 -0.453646
			-0.107277  0.883529 -0.455925
			 0.242180  0.953944 -0.177033
			-0.026842  0.938125 -0.345255
			-0.758908 -0.259321  0.597336
			-0.591514 -0.221586  0.775249
			-0.721960 -0.242579  0.648020
			-0.772268 -0.245523  0.585936
			-0.685581 -0.316154  0.655763
			-0.612315 -0.385287  0.690379
			-0.699071 -0.315798  0.641538
			-0.239713 -0.164146  0.956867
			-0.457087 -0.214958  0.863055
			-0.492744 -0.220120  0.841873
			 0.937734  0.344601  0.043640
			 0.931808  0.346455 -0.108181
			 0.930648  0.302086  0.206489
			 0.937076  0.348233  0.024958
			 0.940355  0.340127  0.006738
			 0.821037  0.218122  0.527561
			 0.874082  0.264944  0.407167
			 0.936064  0.307680  0.170635
			 0.949549  0.310500  0.044129
			 0.776034  0.190290  0.601300
			 0.722735  0.198103  0.662125
			 0.611381  0.172051  0.772407
			 0.523798  0.162555  0.836189
			 0.498228  0.135915  0.856327
			-0.339478 -0.109389  0.934232
			-0.061582 -0.033085  0.997553
			-0.623355 -0.182782  0.760276
			-0.644402 -0.232860  0.728369
			-0.062561 -0.025644  0.997712
			-0.169124 -0.063662  0.983537
			-0.118829 -0.036155  0.992256
			 0.043714  0.017198  0.998896
			 0.205963  0.065813  0.976344
			 0.376657  0.126416  0.917686
			-0.243719 -0.070565  0.967275
			 0.193503  0.032937 -0.980547
			 0.125939  0.072952 -0.989352
			 0.213687  0.104977 -0.971245
			 0.083760  0.026601 -0.996131
			 0.004536 -0.045060 -0.998974
			 0.111586 -0.009577 -0.993709
			 0.226873  0.186211 -0.955957
			 0.111065  0.137269 -0.984287
			 0.309120  0.249545 -0.917700
			 0.081267  0.116036 -0.989915
			 0.141459  0.128562 -0.981560
			 0.119351  0.073784 -0.990107
			 0.198472  0.115664 -0.973258
			 0.368396  0.246673 -0.896346
			 0.867784  0.317594 -0.382210
			 0.607524  0.293256 -0.738184
			 0.509935  0.261887 -0.819379
			 0.928834  0.339171 -0.149096
			 0.099918 -0.128087 -0.986717
			-0.028653 -0.315499 -0.948493
			 0.090336 -0.330766 -0.939379
			 0.219470 -0.414298 -0.883284
			 0.380277 -0.368444 -0.848315
			 0.788819  0.408290 -0.459417
			 0.632227  0.519970 -0.574387
			 0.455176  0.582300 -0.673604
			 0.205480 -0.358421 -0.910666
			 0.276742  0.300152 -0.912865
			 0.104378 -0.148610 -0.983372
			 0.158597  0.015375 -0.987224
			 0.192269  0.163709 -0.967591
			 0.215139  0.445231 -0.869186
			 0.411640  0.460422 -0.786488
			 0.243815  0.515196 -0.821661
			 0.347496  0.546293 -0.762109
			 0.405816  0.523108 -0.749447
			 0.243205  0.593335 -0.767337
			-0.259219 -0.199142  0.945065
			-0.237370 -0.006065  0.971400
			 0.056853  0.224618  0.972787
			-0.138971  0.012456  0.990218
			-0.144001 -0.049055  0.988361
			-0.220241  0.132016  0.966471
			-0.176381  0.045194  0.983284
			-0.058007  0.144962  0.987735
			 0.087863  0.436598  0.895356
			-0.043238  0.397232  0.916699
			-0.055118  0.280913  0.958149
			 0.037508  0.586654  0.808968
			 0.124704  0.749424  0.650241
			 0.012547  0.510907  0.859545
			-0.094428 -0.391936  0.915134
			-0.104373 -0.385151  0.916932
			-0.167423 -0.325228  0.930697
			-0.075972 -0.346131  0.935105
			-0.141484 -0.290973  0.946212
			-0.169226 -0.474771  0.863687
			 0.026189 -0.459112  0.887992
			 0.019383 -0.463594  0.885836
			-0.310736 -0.390713  0.866479
			-0.204962 -0.496245  0.843642
			-0.297751 -0.532408  0.792392
			-0.356026 -0.450393  0.818774
			-0.350046 -0.465947  0.812626
			-0.555694 -0.337821  0.759659
			-0.230688 -0.661723  0.713376
			-0.689111 -0.262128  0.675585
			-0.072590 -0.504907  0.860116
			-0.058714 -0.471779  0.879760
			 0.744763  0.456063 -0.487170
			 0.509612  0.568303 -0.646008
			 0.198323  0.826217 -0.527289
			 0.084851  0.737671 -0.669808
			 0.267521  0.655328 -0.706383
			-0.125394  0.797055 -0.590745
			-0.362998  0.849424 -0.383029
			-0.226446  0.865295 -0.447199
			-0.209895  0.895398 -0.392691
			-0.479395  0.798808 -0.363435
			-0.223351  0.904710  0.362788
			-0.387186  0.791037  0.473654
			-0.168474  0.769901  0.615523
			-0.417435  0.902901 -0.102559
			-0.446091  0.894886 -0.013511
			-0.468579  0.848780 -0.244961
			-0.275695  0.759317 -0.589432
			-0.295784  0.733690 -0.611728
			-0.761490 -0.271355  0.588642
			-0.764720 -0.289251  0.575793
			-0.702859 -0.240623  0.669396
			-0.772807 -0.245284  0.585325
			-0.787713 -0.243645  0.565813
			-0.767093 -0.270500  0.581720
			-0.547976 -0.394373  0.737694
			-0.668931 -0.320329  0.670761
			-0.783025 -0.440589  0.439036
			-0.591838 -0.407571  0.695423
			-0.669666 -0.425570  0.608636
			 0.928199  0.351406 -0.122314
			 0.934990  0.320076  0.152789
			 0.928149  0.365334 -0.071201
			 0.944315  0.308681  0.113956
			 0.787911  0.177424  0.589675
			 0.816573  0.190088  0.545045
			 0.844264  0.215959  0.490489
			 0.927441  0.345833  0.142316
			 0.898643  0.300623  0.319479
			 0.871398  0.241846  0.426820
			 0.948448  0.316781  0.009815
			 0.942257  0.310398  0.125720
			 0.943335  0.327734  0.052048
			 0.948626  0.297645  0.107310
			 0.722685  0.208694  0.658918
			 0.661232  0.186176  0.726712
			 0.600491  0.173334  0.780619
			 0.558949  0.155170  0.814554
			 0.456398  0.167381  0.873890
			 0.341292  0.115246  0.932866
			-0.511343 -0.138573  0.848131
			-0.769153 -0.189833  0.610218
			-0.787754 -0.180142  0.589061
			-0.772108 -0.210506  0.599613
			-0.351280 -0.051440  0.934856
			-0.366483 -0.058693  0.928572
			-0.073878  0.025692  0.996936
			 0.157025  0.095443  0.982972
			-0.459272 -0.098580  0.882809
			 0.083369 -0.046862 -0.995416
			 0.259342  0.073769 -0.962964
			 0.126162 -0.006017 -0.991992
			 0.208028  0.062052 -0.976153
			-0.094897 -0.070473 -0.992989
			-0.041670 -0.058686 -0.997406
			-0.137454 -0.112337 -0.984117
			 0.004068 -0.052709 -0.998602
			 0.120792  0.167425 -0.978457
			 0.363229  0.217231 -0.906022
			 0.301559  0.225477 -0.926403
			-0.010625  0.099719 -0.994959
			 0.148019  0.094798 -0.984431
			-0.134592  0.007942 -0.990869
			 0.199838  0.127857 -0.971451
			-0.060816  0.039610 -0.997363
			-0.064632  0.036818 -0.997230
			-0.011031  0.022594 -0.999684
			 0.887258  0.306526 -0.344697
			 0.816834  0.309719 -0.486679
			 0.532047  0.302945 -0.790665
			 0.771431  0.304936 -0.558487
			 0.905713  0.351043 -0.237597
			-0.204135 -0.301799 -0.931261
			-0.139907 -0.149971 -0.978741
			-0.221294 -0.367910 -0.903145
			-0.303122 -0.433500 -0.848643
			-0.103833 -0.491915 -0.864429
			 0.143300 -0.412521 -0.899606
			 0.101728 -0.484011 -0.869129
			 0.275427  0.595454 -0.754702
			 0.143128  0.270408 -0.952047
			 0.089145 -0.353954 -0.931005
			 0.024256 -0.250850 -0.967722
			-0.056661 -0.023517 -0.998116
			 0.034139  0.082115 -0.996038
			 0.074605  0.346306 -0.935150
			 0.035385  0.524709 -0.850546
			 0.353809  0.503968 -0.787931
			 0.857232  0.259705 -0.444643
			 0.957557  0.152782 -0.244423
			 0.298761  0.553901 -0.777133
			 0.156983  0.618611 -0.769855
			 0.001910  0.593796 -0.804613
			-0.059158  0.618783 -0.783331
			-0.490190 -0.267726  0.829480
			-0.407750 -0.187707  0.893592
			-0.252252 -0.107478  0.961674
			-0.081235  0.191404  0.978144
			-0.432816 -0.074612  0.898389
			-0.409691 -0.035312  0.911541
			-0.490957  0.086938  0.866835
			-0.580063  0.133064  0.803630
			-0.335635  0.208039  0.918732
			-0.368570  0.363728  0.855487
			-0.301224  0.522251  0.797821