<?xml version="1.0"?>
<VTKFile type="PolyData" version="0.1" byte_order="LittleEndian" compressor="vtkZLibDataCompressor">
	<PolyData>
		<Piece NumberOfPoints="1111" NumberOfVerts="0" NumberOfLines="0" NumberOfStrips="0" NumberOfPolys="2218">
		<PointData Normals="Normals">
		<DataArray type="Float32" Name="Normals" NumberOfComponents="3" format="ascii">
			 0.311948 -0.481468  0.819071
			 0.511949 -0.482828  0.710483
			 0.343529 -0.354109  0.869825
			 0.164121 -0.370051  0.914400
			 0.489554 -0.626074  0.606933
			 0.240570 -0.600194  0.762819
			 0.395415 -0.765699  0.507298
			 0.547344 -0.433691  0.715770
			 0.718019 -0.504201  0.479824
			 0.727693 -0.512150  0.456252
			 0.144721 -0.211480  0.966609
			 0.612913 -0.161252  0.773522
			 0.326537 -0.123602  0.937068
			 0.105940 -0.355583  0.928621
			 0.634990 -0.717140  0.287226
			 0.510258 -0.835685  0.203143
			 0.066359 -0.567784  0.820498
			 0.304598 -0.886609  0.348060
			 0.139421 -0.833434  0.534742
			 0.405293 -0.909458  0.092870
			 0.710703 -0.413709  0.568987
			 0.774038 -0.548210  0.316751
			 0.757968 -0.609036  0.233580
			 0.754925 -0.644140  0.123177
			 0.034493 -0.254362  0.966494
			 0.034491 -0.084915  0.995791
			 0.106668  0.019019  0.994113
			 0.819774 -0.265608  0.507368
			 0.830295 -0.111667  0.546023
			 0.697165  0.098470  0.710116
			 0.386352  0.093640  0.917586
			-0.008077 -0.473072  0.880987
			 0.622849 -0.776865 -0.092404
			 0.520368 -0.833437 -0.186011
			-0.057469 -0.777959  0.625682
			 0.290677 -0.956682 -0.016335
			 0.186939 -0.968958  0.161783
			 0.022083 -0.957235  0.288467
			 0.398867 -0.874150 -0.277069
			 0.801414 -0.489600  0.343550
			 0.714775 -0.683756 -0.146881
			 0.762801 -0.644388  0.053849
			-0.028946 -0.120338  0.992311
			-0.062748 -0.291116  0.954628
			-0.015447 -0.481207  0.876471
			-0.057764  0.106503  0.992633
			 0.110787  0.250236  0.961826
			 0.886612 -0.437646  0.149618
			 0.945476 -0.233028  0.227535
			 0.914462 -0.002788  0.404661
			 0.466906  0.263882  0.844017
			 0.774717  0.128241  0.619167
			-0.110187 -0.643688  0.757314
			 0.641764 -0.666823 -0.378796
			 0.544097 -0.706491 -0.452580
			-0.166303 -0.858895  0.484400
			-0.089494 -0.974443  0.206040
			 0.160023 -0.982374 -0.096615
			 0.217806 -0.910449 -0.351631
			 0.019035 -0.999190 -0.035467
			 0.293215 -0.739782 -0.605597
			 0.809729 -0.530675 -0.250446
			-0.221927 -0.274110  0.935741
			-0.086947  0.016431  0.996077
			-0.088255 -0.592146  0.800983
			-0.170124 -0.415669  0.893463
			-0.110299 -0.735802  0.668154
			 0.053772  0.250736  0.966561
			-0.034770  0.123556  0.991728
			 0.232809  0.376038  0.896881
			 0.920603 -0.358140 -0.155649
			 0.995660 -0.085962  0.035648
			 0.948694 -0.263570 -0.174672
			 0.981814  0.066571  0.177793
			 0.514856  0.278081  0.810922
			 0.873535  0.130830  0.468850
			 0.571887  0.243695  0.783299
			 0.686070  0.193410  0.701356
			 0.707437 -0.479824 -0.518943
			 0.595306 -0.485986 -0.639866
			 0.466338 -0.610612 -0.640064
			-0.252726 -0.913714  0.318207
			-0.240340 -0.969603  0.045888
			-0.108683 -0.987120 -0.117397
			 0.069438 -0.947530 -0.312035
			 0.085606 -0.823329 -0.561072
			-0.040898 -0.919998 -0.389783
			 0.295766 -0.558085 -0.775283
			 0.111375 -0.517469 -0.848423
			 0.018433 -0.696657 -0.717168
			 0.834805 -0.327623 -0.442453
			-0.275392 -0.516822  0.810589
			-0.441960 -0.410091  0.797808
			-0.376659 -0.521513  0.765605
			-0.251282 -0.107025  0.961979
			-0.443752 -0.262533  0.856831
			-0.159072  0.051442  0.985926
			-0.208060 -0.697509  0.685706
			-0.169684 -0.857998  0.484816
			 0.187142  0.171523  0.967242
			 0.310654  0.241837  0.919244
			 0.344517  0.360131  0.866957
			 0.045642  0.061737  0.997048
			 0.944391 -0.136417 -0.299193
			 0.967599  0.000418 -0.252493
			 0.948071  0.191962  0.253599
			 0.989849  0.083215 -0.115212
			 0.591707  0.268169  0.760242
			 0.771782  0.270534  0.575468
			 0.468008  0.289531  0.834949
			 0.658323 -0.347427 -0.667762
			 0.447881 -0.463087 -0.764822
			 0.473901 -0.289430 -0.831654
			 0.434133 -0.375025 -0.819076
			-0.273504 -0.947443  0.165974
			-0.270812 -0.959346 -0.079473
			-0.261585 -0.934436 -0.241668
			-0.400527 -0.865023 -0.302182
			-0.047845 -0.788902 -0.612654
			-0.232002 -0.829915 -0.507362
			 0.247761 -0.422519 -0.871832
			 0.024605 -0.482336 -0.875641
			 0.202031 -0.343298 -0.917241
			 0.085694 -0.424602 -0.901315
			-0.077295 -0.621854 -0.779309
			-0.223899 -0.706352 -0.671518
			 0.845786 -0.142827 -0.514049
			-0.390073 -0.745922  0.539854
			-0.427797 -0.643889  0.634348
			-0.568921 -0.627743  0.531289
			-0.601316 -0.446310  0.662742
			-0.415084 -0.079834  0.906274
			-0.615581 -0.360043  0.701020
			-0.026256  0.039236  0.998885
			-0.135855  0.097503  0.985919
			-0.361415  0.088302  0.928214
			-0.413500  0.034885  0.909835
			-0.258311 -0.918301  0.299996
			 0.378860  0.200344  0.903509
			 0.115378  0.082259  0.989910
			 0.371305  0.330762  0.867599
			-0.082133  0.051289  0.995301
			 0.763899 -0.107088 -0.636388
			 0.914278 -0.034095 -0.403649
			 0.981300  0.181973  0.062731
			 0.733092  0.332307  0.593421
			 0.803398  0.340059  0.488785
			 0.972671  0.001340 -0.232185
			 0.968668  0.199632  0.147747
			 0.986617  0.162886 -0.007446
			 0.514555  0.356914  0.779644
			 0.647777 -0.226511 -0.727377
			 0.533192 -0.143724 -0.833696
			 0.372965 -0.233300 -0.898036
			-0.351080 -0.932902 -0.080225
			-0.574388 -0.786966 -0.225305
			-0.474910 -0.688814 -0.547719
			-0.380282 -0.766105 -0.518140
			-0.016094 -0.489306 -0.871964
			-0.083294 -0.417571 -0.904819
			 0.038878 -0.427720 -0.903075
			 0.085877 -0.351930 -0.932078
			 0.239944 -0.224169 -0.944550
			-0.214758 -0.557590 -0.801856
			-0.568612 -0.729966  0.379249
			-0.528066 -0.839334  0.129093
			-0.644084 -0.738272  0.200273
			-0.687269 -0.588552  0.425756
			-0.544992 -0.007552  0.838407
			-0.649805 -0.295666  0.700239
			-0.704142 -0.542751  0.457827
			-0.182504  0.036433  0.982530
			-0.135137  0.065838  0.988637
			-0.562851  0.052729  0.824875
			-0.678484  0.036403  0.733712
			-0.655542 -0.083732  0.750502
			-0.410874 -0.062886  0.909521
			 0.526248  0.402389  0.749097
			 0.254356  0.116133  0.960113
			 0.458447  0.218505  0.861442
			 0.529792  0.355119  0.770202
			 0.084651  0.078952  0.993278
			 0.791046 -0.058066 -0.608994
			 0.931123  0.278346  0.235654
			 0.743888  0.380263  0.549574
			 0.895078 -0.027809 -0.445041
			 0.993823  0.089240 -0.065969
			 0.935328  0.306877  0.176033
			 0.579890 -0.083652 -0.810389
			 0.334856 -0.120253 -0.934565
			-0.643777 -0.762480 -0.064614
			-0.659343 -0.705491 -0.259904
			-0.559907 -0.705693 -0.434167
			-0.303520 -0.515601 -0.801268
			-0.414103 -0.589367 -0.693661
			-0.515306 -0.591912 -0.619759
			 0.005629 -0.385564 -0.922664
			-0.267742 -0.356695 -0.895032
			-0.066042 -0.334445 -0.940098
			-0.137883 -0.260145 -0.955674
			 0.025769 -0.276034 -0.960802
			 0.122293 -0.179369 -0.976151
			-0.675467 -0.714436  0.182551
			-0.700715 -0.118005  0.703614
			-0.749894 -0.525623  0.401721
			-0.743386 -0.347868  0.571285
			-0.744523 -0.615421  0.258732
			 0.026607  0.065685  0.997486
			 0.016304  0.101652  0.994686
			-0.114410  0.041761  0.992556
			-0.691460 -0.069795  0.719035
			-0.742415 -0.005505  0.669917
			-0.829897 -0.035629  0.556777
			-0.814045  0.076772  0.575706
			-0.881576  0.013698  0.471843
			-0.737141  0.012672  0.675620
			-0.794177 -0.082053  0.602121
			-0.672956 -0.128169  0.728494
			-0.810270 -0.128773  0.571735
			-0.401289 -0.063244  0.913766
			 0.191403  0.152402  0.969607
			 0.119082  0.106014  0.987209
			 0.574523  0.297909  0.762347
			 0.603114  0.232504  0.763018
			 0.339032  0.196436  0.920038
			 0.539953  0.358689  0.761441
			 0.703835 -0.041974 -0.709122
			 0.786489  0.405778  0.465597
			 0.610167  0.415292  0.674707
			 0.968769  0.136733 -0.206860
			 0.846175  0.055572 -0.529999
			 0.930847  0.261545 -0.255183
			 0.836421  0.442836  0.322948
			 0.883234  0.462787  0.075664
			 0.592093 -0.033978 -0.805153
			 0.215063  0.005694 -0.976584
			 0.081954 -0.142747 -0.986360
			 0.076155 -0.087396 -0.993258
			-0.747776 -0.661529  0.056660
			-0.656474 -0.600946 -0.455967
			-0.774948 -0.587846 -0.232148
			-0.825270 -0.564724  0.004024
			-0.392605 -0.463936 -0.794119
			-0.538017 -0.422532 -0.729387
			-0.213484 -0.234875 -0.948292
			-0.060312 -0.152438 -0.986471
			-0.092913 -0.130094 -0.987139
			-0.845932 -0.308265  0.435169
			-0.821619 -0.497123  0.278947
			 0.146947  0.136329  0.979705
			-0.049970  0.080571  0.995496
			-0.408543 -0.016161  0.912596
			-0.789599 -0.153882  0.594015
			-0.848403 -0.163800  0.503371
			-0.881707 -0.165709  0.441739
			-0.873457 -0.045543  0.484767
			-0.933251 -0.179777  0.311004
			-0.929387 -0.164901  0.330224
			-0.951392  0.019749  0.307348
			-0.917131  0.185451  0.352817
			-0.938364  0.171794  0.299934
			-0.995999 -0.056694  0.069083
			-0.909510 -0.187424  0.371031
			-0.982611  0.172051  0.069822
			-0.615554 -0.090960  0.782828
			-0.780296 -0.176925  0.599863
			 0.727100  0.256265  0.636909
			 0.584588  0.303492  0.752429
			 0.788637  0.228379  0.570872
			 0.350249  0.189436  0.917300
			 0.546675  0.205828  0.811653
			 0.812224  0.334445  0.477953
			 0.768195  0.472953  0.431500
			 0.804142  0.125169 -0.581110
			 0.886489  0.329099 -0.325318
			 0.868744  0.476472 -0.135127
			 0.839754  0.538466 -0.069768
			 0.873293  0.485875  0.035851
			 0.470954  0.049683 -0.880758
			 0.691953  0.162479 -0.703422
			-0.081954 -0.045952 -0.995576
			 0.317497  0.123171 -0.940226
			-0.051778 -0.065611 -0.996501
			 0.135149 -0.000802 -0.990825
			 0.355946  0.218102 -0.908699
			 0.531634  0.170934 -0.829546
			-0.074371 -0.056975 -0.995602
			-0.078188 -0.032450 -0.996410
			-0.804617 -0.537147 -0.253111
			-0.882084 -0.462366  0.090253
			-0.831165 -0.454416 -0.320422
			-0.762772 -0.353389 -0.541567
			-0.265819 -0.256515 -0.929269
			-0.837482 -0.339043 -0.428573
			-0.607480 -0.256092 -0.751921
			-0.414131 -0.281512 -0.865590
			-0.057846 -0.079231 -0.995177
			-0.045519 -0.044825 -0.997957
			-0.873624 -0.311169  0.374105
			 0.152557  0.131235  0.979543
			-0.212799  0.055917  0.975495
			-0.130100  0.063904  0.989439
			 0.079762  0.115352  0.990117
			-0.224281  0.063577  0.972448
			-0.423177 -0.049010  0.904720
			-0.629059 -0.088605  0.772291
			-0.651003 -0.123984  0.748881
			-0.881237 -0.329910  0.338497
			-0.931646 -0.339886  0.128500
			-0.977854 -0.166053  0.127387
			-0.961334 -0.058541  0.269091
			-0.951119 -0.226954  0.209438
			-0.961703 -0.273131  0.022964
			-0.992058  0.023776  0.123512
			-0.973942  0.221764  0.047512
			-0.973112  0.158355  0.167265
			-0.963258 -0.266122  0.036233
			-0.966405 -0.192059 -0.170804
			-0.982232 -0.008968 -0.187458
			-0.891406 -0.257185  0.373164
			-0.929764  0.206703 -0.304653
			-0.951197  0.164290 -0.261214
			-0.739924 -0.160254  0.653323
			 0.949459  0.233749  0.209497
			 0.867639  0.227709  0.441985
			 0.737019  0.216794  0.640159
			 0.402048  0.190093  0.895669
			 0.258415  0.150769  0.954196
			 0.482713  0.205645  0.851292
			 0.852288  0.423111  0.307543
			 0.890989  0.358498  0.278601
			 0.933774  0.307176  0.183603
			 0.813392  0.417218 -0.405367
			 0.760768  0.547990 -0.347764
			 0.820135  0.457327 -0.343848
			 0.936914  0.347818 -0.034851
			 0.886243  0.339023 -0.315651
			 0.490595  0.216710 -0.844010
			 0.601538  0.358348 -0.713960
			-0.057449 -0.013410 -0.998258
			-0.033417 -0.145536 -0.988788
			 0.073734 -0.118155 -0.990254
			 0.423055 -0.019476 -0.905895
			 0.651924  0.444836 -0.614098
			 0.759483  0.295271 -0.579655
			 0.860374  0.223112 -0.458233
			 0.817892  0.088029 -0.568599
			 0.625156  0.030461 -0.779905
			-0.947165 -0.318971 -0.033719
			-0.887951 -0.336648 -0.313387
			-0.893706 -0.327216 -0.306951
			-0.332662 -0.167248 -0.928097
			-0.896219 -0.322865 -0.304219
			-0.902266 -0.264268 -0.340703
			-0.917764 -0.265753 -0.295102
			-0.744214 -0.256685 -0.616651
			-0.465559 -0.152555 -0.871770
			-0.650457 -0.118793 -0.750196
			-0.839348 -0.148102 -0.523030
			-0.206958 -0.045698 -0.977282
			-0.074748 -0.097430 -0.992431
			-0.200702  0.079646  0.976409
			 0.091318  0.096411  0.991144
			-0.311263 -0.032293  0.949775
			-0.108317  0.029851  0.993668
			-0.614937 -0.192057  0.764832
			-0.734381 -0.184940  0.653055
			-0.984262 -0.073416 -0.160742
			-0.994178  0.067909 -0.083663
			-0.904302  0.052519 -0.423650
			-0.897061 -0.346212  0.274626
			-0.912865 -0.400138 -0.081034
			-0.878741 -0.339025 -0.335970
			-0.892432 -0.187569 -0.410346
			-0.866139  0.048438 -0.497451
			-0.784923 -0.231177  0.574850
			-0.733794  0.061826 -0.676553
			-0.791959  0.153430 -0.590982
			 0.978398  0.157597 -0.133791
			 0.989164  0.006859 -0.146652
			 0.958438  0.237045 -0.158765
			 0.941498  0.112068  0.317841
			 0.814917  0.143078  0.561640
			 0.582311  0.153392  0.798364
			 0.307791  0.080760  0.948020
			 0.856685  0.339804 -0.388104
			 0.918674  0.275377 -0.283207
			 0.094462 -0.253085 -0.962821
			-0.070059 -0.192382 -0.978816
			-0.012210 -0.239632 -0.970787
			 0.300457 -0.154319 -0.941228
			 0.624231 -0.067720 -0.778299
			 0.712464  0.020078 -0.701421
			 0.936423  0.117769 -0.330517
			 0.879506  0.056289 -0.472546
			-0.559838 -0.038125 -0.827725
			-0.422371 -0.035606 -0.905723
			-0.256785 -0.088052 -0.962449
			-0.367178 -0.072844 -0.927294
			-0.253234 -0.205087 -0.945416
			 0.120267 -0.004376  0.992732
			-0.168821 -0.078480  0.982517
			-0.441128 -0.113631  0.890222
			-0.806953 -0.357380  0.470220
			-0.653484 -0.383189  0.652783
			-0.526246 -0.256265  0.810798
			-0.374449 -0.188903  0.907802
			-0.878384 -0.455683  0.144204
			-0.767370 -0.436659 -0.469544
			-0.859027 -0.474119 -0.193092
			-0.728537 -0.369764 -0.576636
			-0.717745 -0.254431 -0.648157
			-0.720338 -0.075003 -0.689557
			-0.617057  0.037857 -0.786007
			 0.989740 -0.029283 -0.139850
			 0.989214  0.066999  0.130254
			 0.859131 -0.094855 -0.502888
			 0.963216 -0.108900 -0.245675
			 0.904314  0.175340  0.389194
			 0.699718  0.065554  0.711405
			 0.834808  0.062193  0.547018
			 0.482820  0.049133  0.874340
			 0.323942 -0.033775  0.945474
			-0.057008 -0.334770 -0.940574
			 0.052738 -0.310518 -0.949103
			 0.338784 -0.226746 -0.913133
			-0.062550 -0.309417 -0.948867
			-0.142946 -0.247625 -0.958253
			 0.648011 -0.189430 -0.737698
			-0.516587 -0.118744 -0.847961
			-0.497978 -0.304977 -0.811793
			-0.257083 -0.354311 -0.899095
			-0.068534 -0.142799  0.987376
			 0.188093 -0.107800  0.976217
			-0.262706 -0.168456  0.950057
			-0.786388 -0.483849  0.384037
			-0.547692 -0.360619  0.754976
			-0.611059 -0.482506  0.627531
			-0.447604 -0.272082  0.851834
			-0.312549 -0.235258  0.920308
			-0.850969 -0.513250  0.111472
			-0.851025 -0.513856 -0.108202
			-0.724414 -0.527669 -0.443610
			-0.469517 -0.425289 -0.773746
			 0.999589 -0.023612  0.016232
			 0.989457 -0.054668  0.134112
			 0.988705 -0.070409 -0.132303
			 0.941878  0.151473  0.299868
			 0.977646  0.027707  0.208426
			 0.832483 -0.191876 -0.519765
			 0.875285 -0.186264 -0.446297
			 0.814759 -0.171736 -0.553783
			 0.878191 -0.160533 -0.450567
			 0.984669 -0.126828 -0.119754
			 0.974821 -0.222755 -0.010221
			 0.909666  0.017168  0.414985
			 0.498062 -0.005908  0.867121
			 0.590906 -0.110076  0.799195
			 0.767219 -0.072902  0.637229
			 0.856216 -0.093757  0.508040
			 0.420892 -0.114479  0.899858
			 0.380755 -0.176091  0.907754
			-0.122999 -0.382955 -0.915542
			-0.088820 -0.301601 -0.949288
			 0.086572 -0.252024 -0.963841
			 0.178969 -0.247611 -0.952186
			 0.418516 -0.270457 -0.867005
			 0.609200 -0.253048 -0.751560
			-0.268292 -0.463086 -0.844731
			 0.090330 -0.178392  0.979804
			-0.062497 -0.251586  0.965815
			 0.325153 -0.191805  0.926006
			 0.217382 -0.183522  0.958679
			-0.820304 -0.527350  0.221367
			-0.726779 -0.583982  0.361604
			-0.447051 -0.390088  0.804970
			-0.449670 -0.614985  0.647758
			-0.205298 -0.454958  0.866526
			-0.792923 -0.597766 -0.118104
			-0.788279 -0.609793  0.082275
			-0.662020 -0.562590 -0.495199
			-0.540618 -0.508636 -0.670091
			-0.404207 -0.463656 -0.788441
			-0.726387 -0.563934 -0.392860
			 0.959392 -0.198401  0.200508
			 0.752072 -0.200444 -0.627862
			 0.686044 -0.125775 -0.716606
			 0.550723 -0.135690 -0.823585
			 0.636456 -0.129819 -0.760309
			 0.963102 -0.180055 -0.200036
			 0.847595 -0.192339 -0.494559
			 0.879618 -0.283021 -0.382323
			 0.929499 -0.368502 -0.015433
			 0.940897 -0.338320  0.015874
			 0.924743 -0.357594  0.130297
			 0.480562 -0.059155  0.874963
			 0.586509 -0.194792  0.786170
			 0.500475 -0.217012  0.838111
			 0.458813 -0.136033  0.878058
			 0.556323 -0.045072  0.829743
			 0.737948 -0.218567  0.638483
			 0.273998 -0.186430  0.943488
			 0.400933 -0.161875  0.901692
			 0.530433 -0.068352  0.844967
			 0.467522 -0.111047  0.876978
			-0.114308 -0.417070 -0.901658
			-0.004495 -0.213702 -0.976889
			-0.064679 -0.336301 -0.939531
			-0.061086 -0.272815 -0.960125
			-0.117126 -0.282096 -0.952210
			 0.290706 -0.233396 -0.927910
			-0.307170 -0.383286 -0.871056
			-0.173790 -0.418806 -0.891291
			 0.141159 -0.188277  0.971919
			 0.026441 -0.087373  0.995825
			-0.073395 -0.334197  0.939641
			-0.585994 -0.792066  0.171003
			-0.294162 -0.477594  0.827872
			-0.375249 -0.763451  0.525671
			-0.380308 -0.668002  0.639640
			-0.204205 -0.587437  0.783083
			-0.172203 -0.561759  0.809181
			-0.196273 -0.477379  0.856497
			-0.019293 -0.480453  0.876808
			-0.276959 -0.462984  0.841985
			-0.273099 -0.502495  0.820314
			-0.777810 -0.623761 -0.077031
			-0.700305 -0.628813 -0.337886
			-0.730008 -0.667511 -0.146686
			-0.663149 -0.530033 -0.528488
			-0.537207 -0.418332 -0.732398
			-0.633281 -0.506611 -0.585065
			 0.845983 -0.244530  0.473834
			 0.489669 -0.083579 -0.867893
			 0.422622 -0.076394 -0.903080
			 0.389182 -0.043526 -0.920132
			 0.357990 -0.091255 -0.929255
			 0.376908 -0.061834 -0.924184
			 0.679890 -0.173907 -0.712395
			 0.530331 -0.025479 -0.847408
			 0.911043 -0.286257 -0.296744
			 0.908762 -0.417083 -0.013944
			 0.906312 -0.419202 -0.053551
			 0.937455 -0.252657 -0.239463
			 0.934184 -0.350408 -0.067197
			 0.960334 -0.251335  0.120784
			 0.912533 -0.208527  0.351851
			 0.568052 -0.227010  0.791065
			 0.688729 -0.065785  0.722028
			 0.723128  0.110423  0.681830
			 0.660469  0.241501  0.710956
			 0.699681  0.203402  0.684890
			 0.625780  0.339340  0.702316
			 0.677541  0.312773  0.665667
			 0.801839 -0.091707  0.590461
			 0.178071 -0.058453  0.982280
			 0.226323 -0.003737  0.974045
			 0.369521 -0.075921  0.926116
			 0.298706  0.025247  0.954011
			 0.496084 -0.020302  0.868037
			 0.619876  0.075764  0.781034
			 0.141001 -0.166782 -0.975860
			-0.028511 -0.239623 -0.970447
			-0.143333 -0.326612 -0.934227
			-0.038151 -0.268466 -0.962533
			 0.029768 -0.198298 -0.979690
			-0.144174 -0.320712 -0.936140
			-0.122040 -0.210303 -0.969989
			-0.319270 -0.288542 -0.902668
			 0.123695 -0.058517  0.990593
			-0.053562 -0.099979  0.993547
			-0.048066  0.112547  0.992483
			 0.001001  0.068360  0.997660
			-0.055484  0.172801  0.983393
			 0.016308 -0.363709  0.931370
			-0.031273 -0.160633  0.986519
			-0.591912 -0.804926 -0.041641
			-0.719372 -0.692236 -0.057571
			-0.520297 -0.837017 -0.169393
			-0.296273 -0.946647 -0.126810
			-0.549816 -0.831102  0.083502
			-0.452802 -0.799434  0.394811
			-0.141703 -0.596845  0.789745
			-0.149906 -0.555237  0.818071
			-0.443942 -0.762864  0.470057
			-0.152004 -0.675171  0.721830
			-0.621065 -0.622973  0.475587
			-0.600629 -0.406631  0.688401
			-0.412645 -0.574668  0.706739
			-0.121793 -0.564746  0.816229
			-0.312790 -0.388890  0.866560
			-0.400695 -0.385691  0.831075
			 0.088420 -0.420893  0.902791
			 0.040378 -0.422557  0.905436
			-0.553643 -0.273463  0.786573
			-0.522008 -0.371475  0.767799
			-0.364959 -0.286602  0.885813
			-0.449481 -0.358135  0.818355
			-0.743957 -0.614957 -0.261451
			-0.738704 -0.635317 -0.225139
			-0.699419 -0.710867 -0.074028
			-0.610228 -0.534929 -0.584357
			-0.466626 -0.383807 -0.796839
			 0.922685  0.024978  0.384744
			 0.175711 -0.119971 -0.977104
			 0.245074 -0.112142 -0.962997
			 0.143762 -0.083497 -0.986084
			 0.198680  0.187682 -0.961926
			 0.339698  0.143007 -0.929599
			 0.809253 -0.148639 -0.568344
			 0.690401 -0.046671 -0.721920
			 0.700736  0.073958 -0.709577
			 0.589625  0.144479 -0.794650
			 0.829638  0.005223 -0.558277
			 0.945119 -0.090530 -0.313934
			 0.988675 -0.126501 -0.080741
			 0.993650  0.003813  0.112449
			 0.849330  0.135754  0.510108
			 0.809358  0.352946  0.469433
			 0.742454  0.470438  0.476917
			 0.708908  0.516774  0.479993
			 0.706010  0.356701  0.611812
			 0.617832  0.548895  0.563026
			 0.633264  0.602972  0.485183
			 0.919588  0.210636  0.331647
			 0.190254  0.214637  0.957985
			 0.151984  0.158743  0.975552
			 0.219492  0.285737  0.932833
			 0.495705  0.159525  0.853714
			 0.372403  0.371795  0.850344
			 0.594163  0.243910  0.766471
			 0.000114 -0.263278 -0.964720
			 0.010031 -0.267455 -0.963518
			 0.010486 -0.216765 -0.976168
			-0.159314 -0.399333 -0.902858
			-0.083167 -0.262060 -0.961461
			-0.055392 -0.221850 -0.973506
			-0.242426 -0.388103 -0.889161
			-0.241441 -0.219994 -0.945150
			 0.074432  0.134266  0.988146
			-0.196150  0.152814  0.968593
			-0.121751  0.135739  0.983235
			-0.175618  0.358393  0.916904
			-0.029378  0.360689  0.932223
			 0.107169 -0.303265  0.946861
			 0.231888 -0.255270  0.938651
			-0.048023 -0.172848  0.983777
			-0.166715 -0.074742  0.983168
			-0.215533  0.134592  0.967176
			 0.451880 -0.885463 -0.108444
			-0.542285 -0.804474 -0.242381
			-0.675238 -0.713543 -0.186841
			-0.551439 -0.697168 -0.458119
			 0.756666 -0.622997 -0.198323
			-0.640828 -0.753295  0.147938
			-0.221550 -0.581450  0.782836
			-0.655882 -0.697379  0.288930
			-0.851514 -0.447742  0.272857
			-0.787734 -0.575290  0.220266
			-0.774199 -0.369229  0.514088
			-0.450552 -0.368233  0.813269
			-0.603935 -0.227783  0.763792
			-0.828223 -0.148390  0.540396
			-0.550266 -0.224714  0.804184
			 0.841801 -0.189513  0.505426
			 0.009296 -0.233430  0.972329
			 0.947742 -0.087621  0.306769
			-0.619244 -0.234563  0.749344
			-0.598493 -0.045995  0.799807
			-0.750266  0.022307  0.660759
			-0.629656 -0.220572  0.744904
			-0.374203 -0.051537  0.925914
			-0.652196 -0.082211  0.753579
			-0.603975 -0.572454 -0.554537
			-0.662196 -0.636862 -0.394846
			-0.424689 -0.873956 -0.236305
			-0.582304 -0.674472 -0.453883
			-0.413486 -0.441202 -0.796473
			-0.256696 -0.340293 -0.904604
			 0.971631  0.234556  0.030267
			 0.054915 -0.202518 -0.977738
			-0.016940  0.010999 -0.999796
			 0.114177  0.068129 -0.991122
			-0.035839 -0.058951 -0.997617
			-0.104304 -0.121307 -0.987120
			 0.109509  0.332026 -0.936892
			 0.256915  0.343458 -0.903344
			 0.239547  0.397423 -0.885817
			 0.099690  0.271206 -0.957345
			 0.060952  0.229425 -0.971416
			 0.005394  0.166433 -0.986038
			 0.407609  0.293397 -0.864739
			 0.810571  0.133522 -0.570216
			 0.607299  0.279117 -0.743829
			 0.948284  0.047254 -0.313885
			 0.985969  0.094774 -0.137414
			 0.871826  0.379902  0.309182
			 0.802377  0.561453  0.202387
			 0.706758  0.641147  0.299037
			 0.563339  0.723224  0.399494
			 0.531903  0.821190  0.206702
			 0.657168  0.721447  0.218276
			 0.678542  0.604131  0.417860
			 0.607652  0.545892  0.576855
			 0.486732  0.808382  0.331076
			 0.503511  0.842711  0.190565
			 0.898299  0.429589  0.092261
			 0.181232  0.445933  0.876527
			 0.178081  0.395945  0.900841
			 0.106608  0.352684  0.929650
			 0.306914  0.581545  0.753398
			 0.231788  0.533849  0.813191
			 0.532867  0.514669  0.671691
			 0.535309  0.505858  0.676426
			 0.434063  0.692519  0.576200
			-0.167404 -0.292749 -0.941421
			-0.202959  0.302881  0.931166
			-0.353557  0.357170  0.864538
			-0.413237  0.393912  0.821017
			-0.331375  0.335272  0.881920
			-0.169786  0.311955  0.934803
			-0.210267  0.464917  0.860023
			-0.400351  0.563466  0.722651
			-0.298350  0.532087  0.792383
			-0.318726  0.586509  0.744594
			-0.128598  0.510666  0.850107
			 0.082784  0.539000  0.838227
			 0.004243  0.603640  0.797246
			 0.074861  0.635383  0.768560
			 0.689127 -0.123091  0.714109
			-0.370667  0.181396  0.910879
			 0.420185 -0.847065 -0.325463
			-0.749234 -0.538893 -0.385024
			-0.788920 -0.588695 -0.176190
			-0.650797 -0.569351 -0.502297
			-0.705878 -0.411459 -0.576574
			-0.597406 -0.408364 -0.690178
			-0.791014 -0.611797 -0.000361
			-0.777239 -0.621000  0.101282
			-0.908818 -0.415237  0.040357
			-0.953365 -0.182523  0.240374
			-0.676313 -0.018425  0.736384
			-0.819115  0.031200  0.572781
			-0.707890  0.013896  0.706186
			-0.963846  0.106204  0.244379
			-0.907901  0.082218  0.411043
			-0.821790  0.209881  0.529727
			-0.683778  0.180256  0.707075
			-0.513252  0.185692  0.837909
			-0.756425  0.058382  0.651470
			-0.859210  0.302373  0.412710
			-0.826932  0.246835  0.505229
			-0.725067  0.085918  0.683298
			-0.778040  0.205462  0.593666
			-0.494616 -0.524658 -0.692885
			-0.467245 -0.502404 -0.727511
			-0.676870 -0.672707 -0.298850
			-0.491089 -0.531596 -0.690099
			-0.557393 -0.575599 -0.598329
			-0.331058 -0.404056 -0.852725
			-0.318165 -0.361048 -0.876593
			-0.251740 -0.228281 -0.940487
			-0.366500 -0.304151 -0.879301
			 0.925474  0.225037 -0.304722
			 0.902959  0.372397 -0.214443
			 0.012867  0.093351 -0.995550
			-0.197872 -0.003552 -0.980221
			-0.110073  0.062623 -0.991949
			 0.027388  0.215667 -0.976083
			 0.179865  0.535237 -0.825330
			 0.101742  0.333411 -0.937276
			 0.144679  0.573644 -0.806226
			 0.366210  0.499687 -0.784986
			 0.350404  0.496898 -0.793920
			 0.269968  0.647871 -0.712306
			 0.377750  0.443950 -0.812535
			 0.147934  0.238453 -0.959820
			 0.131220  0.249984 -0.959317
			 0.789233  0.309705 -0.530277
			 0.662714  0.280269 -0.694449
			 0.557405  0.393718 -0.730948
			 0.781628  0.620617 -0.062388
			 0.722417  0.688452  0.064404
			 0.676926  0.735586  0.026168
			 0.743798  0.647775  0.164777
			 0.577780  0.814167  0.057468
			 0.401544  0.882174  0.246033
			 0.546489  0.820101  0.169662
			 0.330162  0.943676 -0.021646
			 0.230221  0.971091  0.063090
			 0.562713  0.762219  0.319963
			 0.546086  0.724164  0.421162
			 0.347055  0.923647  0.162569
			 0.406793  0.912300  0.047211
			 0.165012  0.585996  0.793335
			 0.194288  0.674094  0.712635
			 0.213222  0.828384  0.517993
			 0.346092  0.822645  0.451082
			 0.538230  0.736689  0.409386
			 0.424184  0.890932  0.162199
			-0.453254  0.650571  0.609359
			-0.517240  0.475272  0.711744
			-0.543325  0.705050  0.455745
			-0.478162  0.408005  0.777749
			-0.253919  0.529346  0.809517
			-0.546241  0.696846  0.464788
			-0.510651  0.715503  0.476750
			-0.315019  0.803760  0.504710
			-0.393101  0.880744  0.264124
			-0.168645  0.823372  0.541864
			-0.263745  0.684354  0.679779
			 0.107628  0.804430  0.584217
			 0.050237  0.771239  0.634561
			-0.034178  0.908164  0.417216
			 0.073183  0.926213  0.369829
			-0.803759 -0.335039 -0.491651
			-0.888490 -0.412550 -0.200967
			-0.477892 -0.421628 -0.770616
			-0.576763 -0.244245 -0.779543
			-0.986870 -0.157251 -0.036875
			-0.963303 -0.194323 -0.185166
			-0.995322  0.095086 -0.017102
			-0.752129  0.184774  0.632583
			-0.820490  0.221768  0.526892
			-0.929768  0.248561  0.271567
			-0.962760  0.269900 -0.015732
			-0.840168  0.464320  0.280223
			-0.783094  0.394420  0.480829
			-0.816405  0.538397  0.208832
			-0.645709  0.433887  0.628332
			-0.799405  0.571158  0.186361
			-0.830604  0.428434  0.355726
			-0.779903  0.414836  0.468682
			-0.314678 -0.140708 -0.938711
			 0.791093  0.529093 -0.306973
			-0.216024  0.053386 -0.974927
			-0.260320  0.037456 -0.964796
			-0.250078 -0.049331 -0.966968
			-0.028753  0.110034 -0.993512
			 0.137586  0.178274 -0.974314
			 0.244369  0.742216 -0.624019
			 0.072991  0.724881 -0.684996
			 0.076152  0.505114 -0.859687
			 0.037284  0.626212 -0.778761
			 0.138867  0.843439 -0.518967
			 0.357455  0.631076 -0.688454
			 0.477019  0.623191 -0.619746
			 0.322105  0.770080 -0.550659
			 0.343509  0.752091 -0.562460
			 0.330344  0.823794 -0.460691
			-0.011996  0.231881 -0.972670
			 0.016016  0.430588 -0.902406
			 0.059572  0.616819 -0.784847
			 0.646138  0.413768 -0.641328
			 0.688821  0.527274 -0.497502
			 0.535429  0.810754 -0.236630
			 0.613619  0.785514 -0.080238
			 0.658452  0.665230 -0.352008
			 0.479978  0.873846 -0.077552
			 0.357440  0.923536 -0.138989
			 0.221596  0.973328  0.059391
			 0.393463  0.918216 -0.045449
			 0.138174  0.954044 -0.265910
			-0.030012  0.978101 -0.205957
			-0.042360  0.992481 -0.114834
			 0.429490  0.902196  0.039756
			 0.522792  0.847682  0.090134
			 0.272393  0.962158 -0.007329
			 0.193674  0.826527  0.528530
			 0.109252  0.977592  0.179937
			 0.206783  0.972922  0.103262