<?xml version="1.0"?>
<VTKFile type="PolyData" version="0.1" byte_order="LittleEndian" compressor="vtkZLibDataCompressor">
	<PolyData>
		<Piece NumberOfPoints="4230" NumberOfVerts="0" NumberOfLines="0" NumberOfStrips="0" NumberOfPolys="8456">
		<PointData Normals="Normals">
		<DataArray type="Float32" Name="Normals" NumberOfComponents="3" format="ascii">
			 0.207024 -0.927277  0.311928
			 0.405891 -0.809048  0.425080
			 0.258626 -0.839125  0.478520
			 0.137252 -0.854255  0.501409
			 0.476048 -0.836239  0.272180
			 0.137145 -0.984656  0.107911
			 0.294760 -0.940250  0.170428
			 0.102776 -0.932799  0.345433
			-0.029824 -0.981348  0.189910
			 0.031293 -0.994071  0.104134
			 0.355357 -0.766831  0.534502
			 0.669213 -0.648622  0.362550
			 0.551908 -0.710773  0.436119
			 0.451316 -0.730242  0.512894
			 0.256219 -0.717146  0.648115
			-0.050812 -0.783334  0.619520
			-0.106429 -0.927847  0.357452
			 0.447924 -0.888190  0.102388
			 0.610052 -0.782647  0.123690
			 0.291472 -0.956559  0.006223
			 0.169779 -0.985050 -0.029191
			-0.011186 -0.995798 -0.090895
			-0.174331 -0.972967  0.151471
			-0.182823 -0.981434 -0.057988
			 0.436246 -0.659524  0.612142
			 0.828743 -0.424176  0.365048
			 0.734997 -0.536217  0.415031
			 0.733075 -0.538256  0.415789
			 0.777484 -0.601501  0.183616
			 0.608136 -0.576535  0.545690
			 0.008497 -0.735659  0.677299
			 0.467528 -0.608594  0.641117
			 0.274390 -0.694591  0.665022
			 0.069514 -0.664178  0.744336
			 0.215249 -0.610687  0.762056
			 0.186019 -0.687354  0.702098
			-0.150508 -0.767570  0.623044
			-0.234241 -0.839480  0.490311
			-0.259816 -0.783622  0.564298
			-0.307253 -0.917157  0.253809
			-0.138535 -0.972332  0.188090
			 0.461084 -0.887220 -0.015556
			 0.711884 -0.702280  0.004967
			 0.564172 -0.823475 -0.059988
			 0.324849 -0.931288 -0.164849
			 0.150478 -0.971343 -0.183982
			-0.061532 -0.964314 -0.257514
			-0.282659 -0.956462  0.072688
			-0.243724 -0.948806 -0.200912
			-0.372597 -0.923893 -0.087141
			 0.512612 -0.519211  0.683849
			 0.742967 -0.483339  0.463015
			 0.905697 -0.274072  0.323416
			 0.949936 -0.155927  0.270756
			 0.924669 -0.266036  0.272417
			 0.761374 -0.470321  0.446216
			 0.852782 -0.517448  0.070785
			 0.717346 -0.417326  0.557901
			 0.598066 -0.441869  0.668632
			-0.098650 -0.752102  0.651622
			 0.370131 -0.593703  0.714507
			 0.490471 -0.449673  0.746480
			 0.144373 -0.584124  0.798722
			-0.056706 -0.663480  0.746042
			 0.006788 -0.537160  0.843453
			 0.069024 -0.496570  0.865248
			 0.394297 -0.436312  0.808802
			 0.242778 -0.446177  0.861386
			-0.396141 -0.843435  0.362891
			-0.508782 -0.787435  0.347975
			-0.208380 -0.726015  0.655347
			-0.444654 -0.726872  0.523394
			-0.516167 -0.848239  0.118583
			 0.454150 -0.856065 -0.246779
			 0.605638 -0.782173 -0.146314
			 0.656218 -0.735638 -0.167973
			 0.828174 -0.559753  0.028375
			 0.828702 -0.559065 -0.026461
			 0.204932 -0.903023 -0.377561
			-0.077082 -0.934860 -0.346547
			-0.369070 -0.908418 -0.196376
			-0.313997 -0.905953 -0.283998
			-0.490939 -0.861190 -0.131646
			 0.560670 -0.370562  0.740495
			 0.799064 -0.312002  0.513957
			 0.841536 -0.318359  0.436422
			 0.922054 -0.327146  0.206863
			 0.963219 -0.229114  0.140411
			 0.981242 -0.066268  0.181035
			 0.919808 -0.335200  0.203946
			 0.917505 -0.075587  0.390476
			 0.909743 -0.277962  0.308391
			 0.953977 -0.295616  0.050387
			 0.939131 -0.321198 -0.121924
			 0.707145 -0.331166  0.624719
			 0.484777 -0.283127  0.827545
			 0.349656 -0.344581  0.871209
			-0.037332 -0.537199  0.842629
			-0.198958 -0.634936  0.746506
			 0.072963 -0.399429  0.913856
			 0.181438 -0.382927  0.905786
			-0.679768 -0.681636  0.270718
			-0.626900 -0.759625  0.173107
			-0.622658 -0.686609  0.375320
			-0.624644 -0.677053  0.389125
			-0.629543 -0.698794  0.339650
			-0.581372 -0.614152  0.533689
			-0.601147 -0.562814  0.567329
			-0.456490 -0.593937  0.662462
			-0.591980 -0.802698  0.072360
			 0.528262 -0.786213 -0.320636
			 0.393443 -0.812824 -0.429556
			 0.798784 -0.576501 -0.172019
			 0.594133 -0.713053 -0.372239
			 0.911092 -0.409582  0.046401
			 0.934092 -0.351768 -0.061084
			 0.181232 -0.866616 -0.464899
			-0.113828 -0.906701 -0.406124
			-0.345726 -0.819402 -0.457224
			-0.419490 -0.833585 -0.359395
			-0.414314 -0.823724 -0.387069
			-0.512774 -0.782778 -0.352591
			-0.615650 -0.787967  0.009143
			-0.641858 -0.758249 -0.114353
			 0.748639 -0.227876  0.622585
			 0.778788 -0.257741  0.571890
			 0.772618 -0.279629  0.569972
			 0.845685 -0.364072  0.390215
			 0.849418 -0.521642  0.079873
			 0.900447 -0.418568 -0.118310
			 0.861945 -0.484819  0.148328
			 0.813769 -0.327888  0.479865
			 0.718313 -0.381439  0.581834
			 0.739757 -0.438651  0.510240
			 0.874807 -0.429539  0.224075
			 0.912573 -0.407050  0.038987
			 0.360936 -0.276622  0.890621
			 0.426493 -0.191313  0.884027
			 0.691685 -0.133326  0.709786
			 0.512635 -0.112177  0.851247
			 0.175381 -0.350449  0.920015
			 0.224388 -0.312936  0.922887
			-0.031342 -0.508499  0.860492
			-0.109221 -0.509734  0.853371
			-0.267088 -0.559783  0.784415
			 0.147868 -0.333124  0.931216
			 0.129064 -0.361056  0.923570
			 0.007509 -0.366347  0.930448
			-0.777448 -0.599048  0.191614
			-0.797925 -0.536368  0.275002
			-0.797919 -0.470574  0.376676
			-0.765412 -0.555794  0.324404
			-0.676276 -0.723977  0.136042
			-0.770458 -0.534707  0.347106
			-0.738313 -0.504015  0.448178
			-0.693850 -0.498378  0.519800
			-0.837573 -0.382712  0.389877
			-0.733906 -0.453574  0.505620
			-0.460202 -0.570741  0.680051
			 0.527980 -0.733324 -0.428337
			 0.291133 -0.773231 -0.563343
			 0.313686 -0.804459 -0.504427
			 0.396317 -0.728426 -0.558863
			 0.832415 -0.532578 -0.153121
			 0.892214 -0.437115  0.113512
			 0.589857 -0.683595 -0.429845
			 0.734186 -0.596535 -0.324217
			 0.884775 -0.448834  0.125386
			-0.076408 -0.842816 -0.532750
			 0.223341 -0.782642 -0.581025
			-0.398482 -0.806145 -0.437427
			-0.325576 -0.843521 -0.427167
			-0.315744 -0.881554 -0.350953
			-0.390791 -0.723966 -0.568468
			-0.469814 -0.670805 -0.573843
			-0.641246 -0.720796 -0.263168
			-0.566232 -0.695988 -0.441568
			-0.714902 -0.693974  0.085527
			-0.791554 -0.605656 -0.081384
			-0.760216 -0.649206  0.024556
			 0.800739 -0.064580  0.595522
			 0.794244 -0.231207  0.561889
			 0.794643 -0.274048  0.541702
			 0.826317 -0.529476  0.191977
			 0.839077 -0.285062  0.463345
			 0.691373 -0.715520 -0.100169
			 0.691663 -0.698335  0.184204
			 0.684756 -0.691518 -0.230027
			 0.621427 -0.516239  0.589343
			 0.637411 -0.536592  0.552971
			 0.830886 -0.440241  0.340319
			 0.862848 -0.480419  0.157137
			 0.870062 -0.489762 -0.055896
			 0.349673 -0.173768  0.920616
			 0.472279 -0.070643  0.878614
			 0.635937 -0.073202  0.768261
			 0.777000 -0.059533  0.626679
			 0.671033 -0.005510  0.741406
			 0.550428  0.019749  0.834649
			 0.527436  0.016337  0.849437
			 0.218164 -0.240182  0.945895
			-0.193784 -0.391765  0.899426
			-0.246094 -0.478455  0.842923
			-0.407816 -0.532066  0.742019
			 0.127720 -0.326046  0.936686
			-0.077139 -0.266916  0.960628
			 0.105725 -0.223747  0.968896
			-0.813693 -0.544061  0.204698
			-0.887629 -0.387932  0.248243
			-0.862447 -0.301342  0.406667
			-0.891431 -0.337939  0.301908
			-0.863593 -0.262913  0.430214
			-0.820740 -0.224854  0.525191
			-0.910980 -0.307226  0.275186
			-0.866537 -0.344118  0.361520
			-0.855725 -0.339574  0.390415
			-0.948265 -0.226161  0.222812
			-0.957390 -0.139876  0.252664
			-0.859765 -0.351823  0.370168
			-0.633095 -0.480384  0.606978
			 0.279899 -0.655850 -0.701083
			 0.482068 -0.629119 -0.609770
			 0.395296 -0.628635 -0.669746
			 0.877531 -0.477451  0.044495
			 0.854452 -0.489598 -0.173799
			 0.762778 -0.550528 -0.339248
			 0.845691 -0.467143  0.258039
			 0.628481 -0.615924 -0.475026
			 0.835183 -0.546370  0.062846
			 0.124979 -0.707458 -0.695617
			-0.095220 -0.766086 -0.635646
			-0.286166 -0.814552 -0.504594
			-0.347137 -0.598154 -0.722293
			-0.233475 -0.732386 -0.639610
			-0.455371 -0.568293 -0.685333
			-0.604429 -0.598410 -0.525901
			-0.560457 -0.521131 -0.643670
			-0.730418 -0.646458 -0.220415
			-0.755227 -0.551256 -0.354613
			-0.842794 -0.520937  0.135362
			-0.896566 -0.441849  0.030645
			-0.843153 -0.511704 -0.165083
			 0.833482 -0.157500  0.529624
			 0.819763 -0.026350  0.572096
			 0.827111  0.099357  0.553186
			 0.699672  0.076125  0.710397
			 0.851221 -0.207342  0.482111
			 0.848545 -0.377931  0.370323
			 0.781292 -0.620509 -0.067465
			 0.642480 -0.692624  0.327860
			 0.707599 -0.691798  0.143940
			 0.810450 -0.546380  0.211283
			 0.923478 -0.308970  0.227435
			 0.948923 -0.244638  0.199244
			 0.906769 -0.399103  0.135965
			 0.296436 -0.139411  0.944823
			 0.268595 -0.168854  0.948338
			 0.422692  0.061929  0.904155
			 0.400351 -0.039401  0.915515
			 0.277438 -0.056107  0.959104
			 0.602066  0.020049  0.798194
			 0.686816 -0.002651  0.726827
			 0.605731  0.044975  0.794397
			 0.680614  0.044071  0.731315
			 0.702302  0.143787  0.697206
			 0.544072  0.055899  0.837175
			 0.389109  0.026050  0.920823
			 0.213811 -0.165913  0.962683
			-0.336460 -0.438156  0.833555
			-0.329329 -0.326386  0.886011
			-0.668036 -0.511590  0.540373
			-0.506487 -0.510179  0.695117
			 0.127963 -0.123939  0.984004
			 0.042237 -0.140693  0.989152
			-0.029253 -0.183574  0.982571
			-0.235682 -0.252442  0.938471
			-0.897182 -0.326025  0.297947
			-0.867341 -0.336189  0.367010
			-0.923763 -0.144046  0.354843
			-0.868154 -0.057400  0.492964
			-0.890391 -0.120284  0.439017
			-0.953931 -0.143292  0.263597
			-0.933511 -0.037075  0.356627
			-0.954297 -0.277503  0.110948
			-0.986251 -0.102388  0.129715
			-0.956925 -0.000881  0.290332
			-0.849209 -0.406519  0.337026
			 0.207177 -0.518973 -0.829304
			 0.359440 -0.530742 -0.767538
			 0.336231 -0.539582 -0.771881
			 0.520177 -0.579774 -0.627119
			 0.906181 -0.418863 -0.058227
			 0.905950 -0.411113  0.101198
			 0.867581 -0.450315 -0.210996
			 0.693515 -0.551294 -0.463801
			 0.818879 -0.450006 -0.356274
			 0.662900 -0.562479 -0.494147
			 0.023648 -0.644259 -0.764442
			-0.155839 -0.631718 -0.759373
			-0.335085 -0.460454 -0.822009
			-0.257640 -0.503245 -0.824843
			-0.434895 -0.471074 -0.767434
			-0.780329 -0.452225 -0.431947
			-0.486112 -0.431311 -0.760044
			-0.625694 -0.407081 -0.665426
			-0.927330 -0.370749 -0.051043
			-0.900269 -0.393434 -0.186346
			-0.918705 -0.340707  0.199749
			 0.861058 -0.014757  0.508292
			 0.872004 -0.205071  0.444472
			 0.871034 -0.149086  0.468052
			 0.875854  0.125493  0.465974
			 0.880572  0.119317  0.458645
			 0.802421  0.174261  0.570748
			 0.863391  0.145608  0.483068
			 0.832872 -0.216862  0.509210
			 0.898978 -0.215814  0.381135
			 0.867291 -0.426590  0.256569
			 0.845122 -0.198029  0.496541
			 0.928297 -0.140683  0.344199
			 0.947146 -0.274584  0.165885
			 0.973463 -0.126771  0.190526
			 0.993332 -0.056334  0.100588
			 0.979452 -0.120899  0.161424
			 0.241315 -0.119755  0.963029
			 0.340850  0.293006  0.893291
			 0.337597  0.122709  0.933258
			 0.271164  0.122721  0.954678
			 0.277557  0.095473  0.955953
			 0.252944 -0.040423  0.966636
			 0.772019  0.118250  0.624503
			 0.702023  0.054472  0.710068
			 0.543631 -0.018306  0.839125
			 0.286303 -0.016873  0.957991
			 0.350599  0.008518  0.936487
			 0.252888  0.006154  0.967476
			-0.530837 -0.355702  0.769213
			-0.527895 -0.440806  0.725959
			-0.592807 -0.343808  0.728269
			-0.538213 -0.320813  0.779362
			-0.714930 -0.448505  0.536394
			 0.249651  0.070945  0.965733
			 0.109527 -0.058278  0.992274
			-0.179100 -0.258292  0.949320
			-0.192807 -0.265187  0.944723
			 0.078316 -0.084510  0.993340
			-0.446194 -0.318589  0.836309
			-0.898704 -0.050044  0.435691
			-0.849293 -0.036547  0.526656
			-0.883774 -0.170801  0.435627
			-0.902594  0.035101  0.429060
			 0.990554  0.013328  0.136477
			 0.821597  0.103466  0.560601
			-0.884127 -0.357482  0.300874
			-0.918084 -0.310817  0.245998
			-0.945980 -0.312251  0.087295
			-0.969956 -0.239811  0.040938
			-0.973988 -0.058458  0.218930
			 0.157180 -0.031469  0.987069
			 0.246173 -0.460225 -0.852990
			 0.059171 -0.557249 -0.828235
			 0.043595 -0.513239 -0.857138
			 0.086274 -0.410956 -0.907564
			 0.224111 -0.471215 -0.853071
			 0.398342 -0.558386 -0.727687
			 0.195401 -0.486776 -0.851392
			 0.625571 -0.514705 -0.586293
			 0.912103 -0.374556 -0.166662
			 0.962168 -0.272443  0.002689
			 0.953773 -0.280745  0.107230
			 0.931733 -0.299108 -0.205932
			 0.946512 -0.287675 -0.146143
			 0.642739 -0.525413 -0.557519
			 0.726046 -0.558435 -0.401256
			 0.817489 -0.382256 -0.430804
			-0.043412 -0.604781 -0.795208
			-0.134046 -0.507715 -0.851033
			-0.223015 -0.412074 -0.883436
			-0.423672 -0.365425 -0.828835
			-0.315704 -0.377930 -0.870345
			-0.919289 -0.334797 -0.206927
			-0.817329 -0.363695 -0.446878
			-0.469562 -0.359925 -0.806204
			-0.598564 -0.360197 -0.715527
			-0.755397 -0.358515 -0.548491
			-0.949923 -0.195440  0.243824
			-0.954794 -0.296792  0.016803
			-0.956771 -0.188658  0.221353
			 0.891741 -0.075318  0.446234
			 0.888923  0.014569  0.457825
			 0.885408 -0.122096  0.448492
			 0.891555  0.191996  0.410204
			 0.919180  0.108854  0.378495
			 0.897125  0.167151  0.408934
			 0.856091  0.035449  0.515608
			 0.960003 -0.058951  0.273715
			 0.969530 -0.177286  0.169057
			 0.988900 -0.099465  0.110381
			 0.998940 -0.023350  0.039670
			 0.994661 -0.029859  0.098779
			 0.983645  0.163570  0.075412
			 0.980999  0.152320  0.120168
			 0.963201  0.150989  0.222366
			 0.975710  0.041078  0.215182
			 0.966062  0.078734  0.246020
			 0.390472  0.283402  0.875908
			 0.384478  0.316713  0.867104
			 0.416164  0.130614  0.899860
			 0.744827 -0.021602  0.666908
			 0.802815  0.013569  0.596074
			 0.679619 -0.026726  0.733078
			 0.699466 -0.078786  0.710309
			 0.431296 -0.028254  0.901768
			 0.592880 -0.081024  0.801204
			 0.353521  0.079443  0.932047
			 0.162555  0.125617  0.978671
			 0.287772  0.059915  0.955823
			 0.196903  0.119348  0.973132
			-0.829376 -0.312354  0.463218
			-0.777305 -0.346133  0.525346
			-0.791662 -0.365522  0.489557
			-0.706913 -0.300390  0.640344
			-0.727436 -0.337413  0.597486
			 0.266715  0.058483  0.961999
			 0.454364  0.176729  0.873110
			-0.290981 -0.248144  0.923989
			-0.431391 -0.358807  0.827744
			-0.035898 -0.081505  0.996026
			 0.182262  0.103138  0.977826
			-0.673246 -0.312118  0.670315
			-0.873751  0.054305  0.483333
			-0.891679  0.003220  0.452657
			-0.891352 -0.011103  0.453176
			-0.885407  0.043722  0.462755
			-0.907763 -0.279531  0.312776
			-0.938125 -0.340469 -0.063273
			-0.917180 -0.369736  0.148582
			-0.928391 -0.348107 -0.130043
			-0.948623 -0.067771  0.309065
			-0.944258 -0.156524  0.289617
			-0.944212 -0.329238  0.008110
			-0.088632 -0.421878 -0.902310
			 0.121866 -0.357343 -0.925988
			 0.097171 -0.271473 -0.957528
			-0.139223 -0.283279 -0.948878
			-0.003703 -0.213872 -0.976855
			 0.577772 -0.648355 -0.495797
			 0.219517 -0.512345 -0.830250
			 0.307336 -0.537520 -0.785249
			 0.472541 -0.525223 -0.707705
			 0.049304 -0.366981 -0.928921
			 0.995655 -0.088781  0.028097
			 0.985601 -0.166334 -0.030395
			 0.991562 -0.116042 -0.057778
			 0.941649 -0.246835 -0.228847
			 0.616738 -0.585392 -0.526261
			 0.608897 -0.495337 -0.619585
			 0.610493 -0.484357 -0.626655
			 0.889329 -0.281210 -0.360575
			 0.734927 -0.374444 -0.565397
			-0.044290 -0.418578 -0.907100
			-0.206783 -0.402406 -0.891802
			 0.445092 -0.315612 -0.838023
			-0.402474 -0.273860 -0.873508
			-0.364377 -0.303119 -0.880539
			-0.835002 -0.326855 -0.442649
			-0.956743 -0.268432 -0.112194
			-0.954811 -0.265869 -0.132853
			-0.951373 -0.232165 -0.202456
			-0.543559 -0.356121 -0.760080
			-0.441613 -0.280789 -0.852136
			-0.687741 -0.333162 -0.644992
			-0.809122 -0.289852 -0.511183
			-0.852411 -0.294481 -0.432060
			-0.955999 -0.045606  0.289805
			-0.948265 -0.208063  0.239800
			-0.971336 -0.230764  0.057047
			-0.933372 -0.274929 -0.230718
			-0.903996  0.064011  0.422721
			-0.879652 -0.025194  0.474949
			 0.917569  0.221723  0.330008
			 0.926423 -0.052580  0.372794
			 0.978540 -0.010661  0.205783
			 0.949095  0.169466  0.265516
			 0.879194  0.264902  0.396036
			 0.882729  0.358145  0.304173
			 0.907678  0.295688  0.297806
			 0.824776  0.067009  0.561474
			 0.873876 -0.094472  0.476881
			 0.996822  0.079306 -0.007476
			 0.872429  0.438789  0.215250
			 0.940828  0.329298  0.080030
			 0.473131  0.220495  0.852953
			 0.762990 -0.111297  0.636756
			 0.859295 -0.042816  0.509685
			 0.668802 -0.106923  0.735711
			 0.438269 -0.031465  0.898293
			 0.680122 -0.080169  0.728702
			 0.550037 -0.077582  0.831529
			 0.643268 -0.101856  0.758836
			 0.254309  0.174733  0.951207
			 0.375487  0.201714  0.904611
			 0.122316  0.159775  0.979546
			 0.105581  0.240053  0.965001
			 0.074962  0.210363  0.974745
			 0.131172  0.147609  0.980309
			 0.072152  0.224469  0.971807
			 0.370045  0.025442  0.928666
			 0.176967  0.185365  0.966604
			 0.136754  0.207595  0.968609
			 0.169965  0.233535  0.957378
			 0.130352  0.189003  0.973286
			 0.147168  0.191925  0.970313
			-0.869199 -0.321214  0.375917
			-0.827681 -0.274224  0.489638
			 0.396602  0.150880  0.905507
			-0.590619 -0.319616  0.740956
			-0.492557 -0.191212  0.849015
			-0.229923 -0.077767  0.970097
			 0.037521  0.062924  0.997313
			 0.131504  0.185947  0.973720
			-0.776465 -0.375037  0.506408
			-0.949947 -0.139572  0.279500
			-0.950505 -0.156914  0.268175
			-0.922605 -0.172057  0.345249
			-0.883290  0.114902  0.454529
			-0.892386 -0.045057  0.449019
			-0.907008 -0.417233 -0.057028
			-0.897674 -0.434798  0.071644
			-0.867166 -0.427103  0.256137
			-0.895124 -0.423761 -0.138491
			-0.945199 -0.316772  0.079083
			-0.887673 -0.450180 -0.096822
			-0.862706 -0.480643 -0.157230
			 0.086635 -0.223789 -0.970779
			 0.056966 -0.147766 -0.987380
			-0.070923 -0.378976 -0.922685
			-0.248291 -0.142461 -0.958153
			-0.116808 -0.018449 -0.992983
			-0.318170 -0.307176 -0.896889
			 0.266376 -0.533669 -0.802647
			 0.186478 -0.497991 -0.846894
			 0.287459 -0.506513 -0.812904
			-0.114535 -0.413463 -0.903289
			 0.043385 -0.219693 -0.974604
			-0.216358 -0.319421 -0.922583
			 0.977774 -0.118328 -0.173081
			 0.415015 -0.504992 -0.756799
			 0.541825 -0.461330 -0.702567
			 0.885791 -0.233806 -0.400886
			 0.809776 -0.246340 -0.532522
			 0.657204 -0.370377 -0.656433
			-0.286178 -0.399067 -0.871119
			 0.780742 -0.266235 -0.565297
			-0.115736 -0.331870 -0.936199
			 0.774907 -0.257555 -0.577221
			-0.344062 -0.159917 -0.925229
			-0.385370 -0.179640 -0.905107
			-0.853535 -0.245609 -0.459515
			-0.823404 -0.283362 -0.491642
			-0.964730 -0.251434 -0.077955
			-0.967016 -0.238114 -0.090454
			-0.929331 -0.206457 -0.306136
			-0.980891 -0.183641 -0.064263
			-0.993994 -0.096314 -0.051960
			-0.959690 -0.145918 -0.240214
			-0.579211 -0.342278 -0.739838
			-0.631632 -0.287045 -0.720171
			-0.485479 -0.190641 -0.853209
			-0.336496 -0.136167 -0.931788
			-0.652100 -0.322163 -0.686277
			-0.871169 -0.229438 -0.434076
			-0.702847 -0.293739 -0.647861
			-0.939379 -0.129678  0.317411
			-0.990203 -0.130474  0.049754
			-0.940960 -0.252584 -0.225380
			-0.968504 -0.202830 -0.144432
			-0.834437  0.065809  0.547161
			-0.811338  0.041647  0.583092
			 0.990498 -0.118670  0.069504
			 0.944240 -0.125428  0.304432
			 0.998795  0.046516  0.015632
			 0.984215 -0.111305 -0.137591
			 0.958720  0.245127  0.144110
			 0.882533  0.420868  0.209778
			 0.975079  0.218589  0.037945
			 0.990480  0.003004 -0.137625
			 0.988001  0.143149  0.057984
			 0.991886  0.126644  0.011092
			 0.827967  0.545147  0.131472
			 0.838197  0.504956  0.206024
			 0.936582  0.345786  0.056980
			 0.845260  0.528548  0.078566
			 0.912095 -0.140972  0.384981
			 0.768610 -0.208005  0.604957
			 0.885413 -0.164896  0.434573
			 0.678870 -0.174677  0.713179
			 0.574763 -0.129882  0.807947
			-0.060531  0.218773  0.973896
			 0.119046  0.260478  0.958112
			 0.187083  0.258541  0.947711
			-0.110249  0.215544  0.970251
			 0.165385  0.290449  0.942490
			 0.040510  0.206718  0.977562
			 0.184486  0.228551  0.955892
			 0.258083  0.266541  0.928628
			 0.116773  0.245565  0.962321
			-0.029767  0.231059  0.972484
			 0.198410  0.161111  0.966787
			 0.349118  0.035464  0.936407
			 0.069098  0.244188  0.967263
			 0.005578  0.105594  0.994394
			-0.676012 -0.321351  0.663130
			-0.487147 -0.138653  0.862243
			-0.230739  0.042180  0.972101
			-0.711059 -0.489656  0.504612
			-0.692000 -0.447253  0.566657
			-0.932315 -0.329035  0.150079
			-0.918682 -0.288216  0.270103
			-0.915842 -0.339316  0.214706
			-0.877047  0.070163  0.475253
			-0.944039 -0.126833  0.304472
			-0.929500  0.000984  0.368822
			-0.920644 -0.254126  0.296368
			-0.838085 -0.532417 -0.118933
			-0.838877 -0.539359  0.073338
			-0.687738 -0.586726  0.427515
			-0.756078 -0.615621  0.222163
			-0.885741 -0.461957 -0.045361
			-0.039058 -0.082163 -0.995853
			-0.198346  0.035281 -0.979497
			-0.088276  0.137067 -0.986621
			-0.073050  0.173711 -0.982084
			 0.142672 -0.449128 -0.882002
			-0.239694 -0.407244 -0.881305
			-0.117588 -0.413902 -0.902695
			-0.087231 -0.181874 -0.979445
			-0.375562 -0.370464 -0.849535
			-0.255446 -0.410129 -0.875524
			-0.327340 -0.191864 -0.925223
			-0.418355 -0.231958 -0.878166
			 0.922250 -0.135148 -0.362202
			 0.458312 -0.425730 -0.780195
			 0.679630 -0.345013 -0.647355
			 0.614401 -0.293471 -0.732384
			 0.933713 -0.071149 -0.350881
			 0.828682 -0.129110 -0.544626
			-0.196924 -0.004145 -0.980410
			-0.340946 -0.064417 -0.937873
			-0.988677 -0.064839  0.135324
			-0.997280 -0.054764 -0.049325
			-0.983169 -0.051562  0.175274
			-0.984066 -0.065436 -0.165327
			-0.941671 -0.112955 -0.317013
			-0.720942 -0.187243 -0.667220
			-0.658833 -0.264968 -0.704081
			-0.316233 -0.066581 -0.946342
			-0.613770 -0.094424 -0.783818
			-0.251603 -0.036610 -0.967138
			-0.805496 -0.228650 -0.546714
			-0.830429 -0.137347 -0.539929
			 0.981557 -0.006545  0.191056
			 0.944015 -0.087762  0.318015
			-0.990792 -0.132410 -0.028275
			-0.994116 -0.081317  0.071563
			-0.984739 -0.010272  0.173732
			 0.190868  0.106416  0.975830
			 0.984178 -0.165402 -0.063527
			 0.965306 -0.147565  0.215428
			 0.999418  0.019341 -0.028110
			 0.973827 -0.078639 -0.213253
			 0.933186  0.354173  0.061044
			 0.998093  0.031029 -0.053354
			 0.977907  0.078153 -0.193883
			 0.985262  0.129184 -0.112120
			 0.941112  0.329593  0.075342
			 0.973667  0.198644 -0.111865
			 0.954572  0.263544  0.139055
			 0.937095  0.343481  0.062242
			 0.955327  0.268610  0.123281
			 0.867507  0.480132  0.130015
			 0.872934  0.477180  0.101421
			 0.845723  0.506377  0.168331
			 0.834059  0.482370  0.267702
			 0.968357 -0.208661  0.136910
			 0.867958 -0.228315  0.441045
			 0.710722 -0.274807  0.647577
			 0.792665 -0.339773  0.506199
			 0.775583 -0.296873  0.557079
			 0.957471 -0.269822  0.102201
			 0.681563 -0.236402  0.692521
			 0.604992 -0.047271  0.794827
			 0.517296  0.006514  0.855782
			-0.101022  0.234403  0.966876
			-0.216955  0.245781  0.944734
			 0.192911  0.166291  0.967023
			 0.065561  0.198903  0.977824
			 0.032367  0.196914  0.979886
			 0.180298  0.121780  0.976044
			 0.125303  0.212363  0.969124
			-0.331611  0.223811  0.916484
			-0.273786  0.150199  0.949990
			-0.138968  0.147904  0.979190
			 0.135139  0.324715  0.936108
			 0.205872  0.357350  0.910998
			 0.068216  0.214709  0.974293
			 0.262359  0.291553  0.919872
			 0.293998  0.379613  0.877188
			 0.362590  0.339802  0.867792
			 0.233912  0.367835  0.899990
			 0.270952  0.271949  0.923379
			-0.108021  0.162161  0.980834
			 0.036281  0.209753  0.977081
			 0.182371  0.233516  0.955098
			 0.359133  0.269748  0.893454
			 0.075048  0.190680  0.978779
			 0.265860  0.259489  0.928431
			 0.223126  0.248788  0.942507
			 0.386167  0.326844  0.862582
			 0.285870  0.285150  0.914860
			 0.390415  0.315970  0.864719
			 0.036585  0.277900  0.959913
			-0.147756  0.268132  0.951984
			 0.278768  0.044166  0.959342
			 0.390624  0.104387  0.914612
			-0.223969  0.204987  0.952795
			-0.569556 -0.174359  0.803247
			-0.690803 -0.347274  0.634187
			-0.439413 -0.057968  0.896413
			-0.399821  0.012936  0.916502
			-0.756452 -0.389174  0.525664
			-0.902481 -0.427287  0.054361
			-0.877163 -0.466020 -0.115807
			-0.907902 -0.400382  0.124131
			-0.948729 -0.232602  0.214032
			-0.995021 -0.084059  0.053549
			-0.936624 -0.298288  0.183735
			-0.750430 -0.659024  0.050417
			-0.801851 -0.555988 -0.218887
			-0.744070 -0.659447 -0.107192
			-0.746768 -0.655249  0.113959
			-0.644779 -0.480657  0.594331
			-0.628556 -0.500313  0.595486
			-0.651584 -0.658666  0.376294
			-0.707263 -0.534649  0.462525
			-0.615911 -0.685793  0.387740
			-0.696445 -0.689041  0.200468
			-0.197099  0.160927 -0.967086
			-0.274738 -0.035175 -0.960876
			-0.009058  0.072554 -0.997323
			 0.167113  0.149962 -0.974466
			 0.025705  0.312998 -0.949406
			 0.356560 -0.403778 -0.842513
			 0.177524 -0.377194 -0.908961
			 0.152955 -0.326050 -0.932897
			-0.113275 -0.369724 -0.922211
			-0.222476 -0.120551 -0.967456
			-0.353857 -0.334705 -0.873360
			-0.547768 -0.282315 -0.787559
			-0.479856 -0.036795 -0.876575
			-0.408616 -0.301810 -0.861361
			-0.522673 -0.180141 -0.833284
			-0.504694 -0.051287 -0.861774
			-0.431255 -0.010002 -0.902175
			-0.381398 -0.125455 -0.915859
			 0.414184 -0.339336 -0.844572
			 0.380055 -0.278170 -0.882145
			 0.594739 -0.164001 -0.787013
			 0.780451 -0.117268 -0.614120
			 0.905519 -0.008357 -0.424223
			 0.961248  0.000038 -0.275685
			 0.991136  0.120821 -0.055243
			-0.013504 -0.036362 -0.999247
			-0.986730 -0.033469 -0.158882
			-0.938404  0.027100 -0.344476
			-0.889564 -0.042632 -0.454817
			-0.312403  0.070236 -0.947350
			-0.519042 -0.048159 -0.853391
			-0.448420  0.071686 -0.890944
			-0.799513 -0.049780 -0.598583
			-0.697476  0.018094 -0.716379
			-0.283606 -0.072578 -0.956190
			 0.915928 -0.182272 -0.357566
			 0.956843 -0.238254 -0.166396
			 0.883931 -0.039151 -0.465975
			 0.972787  0.202573 -0.112468
			 0.957858  0.273126  0.088946
			 0.941974  0.056068 -0.330970
			 0.980102  0.177805 -0.088231
			 0.915607  0.383809  0.119811
			 0.976216  0.177274 -0.124802
			 0.954563  0.291183 -0.063422
			 0.864998  0.440101  0.241020
			 0.844231  0.417953  0.335543
			 0.941733  0.245090  0.230368
			 0.960664  0.227373  0.159459
			 0.877524  0.395610  0.271008
			 0.903246 -0.345658  0.254299
			 0.871738 -0.367876  0.323637
			 0.897253 -0.239642  0.370822
			 0.747204 -0.114623  0.654636
			 0.692747 -0.140282  0.707405
			 0.852929 -0.135202  0.504215
			 0.956683 -0.291125 -0.002012
			 0.593378  0.088488  0.800045
			 0.646205  0.045612  0.761800
			 0.505271  0.137682  0.851906
			-0.266666  0.246749  0.931667
			-0.364117  0.259428  0.894492
			 0.122169  0.245052  0.961782
			 0.367131  0.298099  0.881108
			 0.010492  0.226972  0.973845
			-0.019569  0.179180  0.983622
			-0.520976  0.196892  0.830552
			-0.466130  0.264426  0.844276
			-0.506007  0.141055  0.850917
			-0.438449  0.095214  0.893698
			-0.358473  0.132437  0.924098
			 0.259072  0.396005  0.880944
			 0.379857  0.404583  0.831878
			 0.357529  0.327782  0.874490
			 0.492443  0.402603  0.771629
			 0.573037  0.376709  0.727818
			-0.207972  0.157954  0.965297
			-0.451720  0.117136  0.884436
			-0.303507  0.137628  0.942837
			-0.209497  0.141054  0.967582
			 0.335265  0.255015  0.906953
			 0.037310  0.154234  0.987330
			 0.413491  0.289279  0.863332
			 0.258667  0.240535  0.935540
			 0.192185  0.218971  0.956617
			 0.279399  0.256783  0.925202
			 0.341696  0.274652  0.898782
			 0.512643  0.317129  0.797889
			 0.410304  0.306749  0.858811
			-0.410883  0.168394  0.896002
			-0.325667  0.225061  0.918308
			-0.461477  0.052187  0.885616
			-0.495918 -0.101682  0.862396
			-0.546305 -0.205777  0.811916
			-0.738667 -0.354193  0.573515
			-0.594946 -0.369384  0.713859
			-0.830977 -0.435526 -0.346113
			-0.917780 -0.389287 -0.078331
			-0.759896 -0.582434 -0.288666
			 0.172618 -0.968127 -0.181476
			 0.159455 -0.891234  0.424590
			-0.966449 -0.231001  0.112317
			-0.991119  0.000682 -0.132973
			-0.991756 -0.127978  0.006518
			-0.992996  0.011378 -0.117596
			-0.718287 -0.694934 -0.033617
			-0.759089 -0.650178 -0.032456
			-0.639754 -0.266072  0.721056
			-0.661385 -0.414198  0.625309
			-0.838523 -0.500707  0.214875
			-0.812538 -0.327769  0.482027
			-0.599635 -0.728462  0.331331
			-0.607534 -0.751619  0.256849
			-0.773277 -0.629444  0.076435
			-0.349471  0.270313 -0.897107
			-0.474856  0.149748 -0.867229
			 0.325842  0.256661 -0.909919
			 0.338435 -0.048194 -0.939755
			 0.171134 -0.107398 -0.979377
			 0.078434  0.215218 -0.973411
			 0.415874 -0.154321 -0.896233
			 0.257217 -0.202602 -0.944877
			-0.045575 -0.262354 -0.963895
			-0.339795 -0.224606 -0.913286