<?xml version="1.0"?>
<VTKFile type="PolyData" version="0.1" byte_order="LittleEndian" compressor="vtkZLibDataCompressor">
	<PolyData>
		<Piece NumberOfPoints="1025" NumberOfVerts="0" NumberOfLines="0" NumberOfStrips="0" NumberOfPolys="2046">
		<PointData Normals="Normals">
		<DataArray type="Float32" Name="Normals" NumberOfComponents="3" format="ascii">
			 0.914078  0.372095 -0.161268
			 0.915050  0.309263 -0.258919
			 0.860833  0.297940  0.412552
			 0.827910  0.422873  0.368434
			 0.630813  0.244288 -0.736477
			 0.763372  0.342236 -0.547848
			 0.889818  0.273962  0.364921
			 0.929478  0.368800  0.007554
			 0.853609  0.357829 -0.378563
			 0.536882  0.249979 -0.805772
			 0.634921  0.274491 -0.722171
			 0.749041  0.235715  0.619173
			 0.569318  0.209820  0.794892
			 0.842385  0.424011 -0.332568
			 0.932418  0.359893 -0.032777
			 0.907032  0.311777  0.283000
			 0.577783  0.421726  0.698795
			 0.690603  0.433365  0.579018
			 0.442941  0.291385  0.847878
			 0.255694  0.147514 -0.955437
			 0.321996  0.329619 -0.887508
			 0.493420  0.265064 -0.828419
			 0.908533  0.398336  0.126080
			 0.717415  0.283047  0.636553
			 0.826302  0.463698 -0.319702
			 0.258163  0.099828 -0.960930
			 0.769344  0.346750 -0.536539
			 0.564181  0.141384 -0.813456
			 0.647216  0.179259  0.740930
			 0.774724  0.243484  0.583539
			 0.361867  0.074240  0.929269
			 0.354944  0.106197  0.928836
			 0.320768  0.136602  0.937255
			 0.450662  0.107678  0.886177
			 0.761747  0.364060 -0.535913
			 0.866024  0.302959  0.397768
			 0.926022  0.299503  0.229740
			 0.950331  0.286331  0.122003
			 0.815147  0.293251 -0.499539
			 0.949768  0.311962  0.024926
			 0.948145  0.283328  0.144036
			 0.893825  0.211284  0.395521
			 0.950929  0.256069  0.173673
			 0.808803  0.160576  0.565732
			 0.905258  0.289054  0.311378
			 0.816579  0.205116  0.539562
			 0.786972  0.341782  0.513672
			 0.622821  0.306023  0.720030
			 0.283536  0.223086  0.932652
			 0.430916  0.251652  0.866592
			 0.145299  0.127284  0.981166
			 0.200823  0.120133  0.972234
			 0.100350  0.057390 -0.993296
			 0.026328  0.120507 -0.992363
			 0.034889  0.123480 -0.991734
			 0.277148  0.051246 -0.959460
			 0.176244  0.063128 -0.982320
			 0.652575  0.177539 -0.736632
			 0.711809  0.281901  0.643319
			 0.910086  0.271340  0.313238
			 0.911146  0.211041 -0.353943
			 0.650982  0.268668  0.709958
			 0.042756 -0.004273 -0.999076
			 0.085051 -0.022157 -0.996130
			 0.351048  0.094580 -0.931569
			 0.227702  0.003542 -0.973724
			 0.834424  0.092552 -0.543297
			 0.590866  0.030995 -0.806174
			 0.289232 -0.011942 -0.957184
			 0.614257  0.168961  0.770805
			 0.832085  0.232462  0.503583
			 0.790239  0.277002  0.546619
			 0.658562  0.203470  0.724497
			 0.730733  0.216831  0.647312
			 0.228196  0.031713  0.973099
			 0.130412  0.033328  0.990900
			 0.383916  0.096291  0.918334
			 0.539984  0.153252  0.827606
			 0.560211  0.176770  0.809268
			 0.485450  0.133760  0.863971
			 0.898586  0.268229  0.347268
			 0.898090  0.287832 -0.332548
			 0.964173  0.264879  0.014493
			 0.851131  0.101528  0.515043
			 0.902625  0.214390  0.373236
			 0.595017 -0.003193  0.803707
			 0.687729  0.138084  0.712715
			 0.530906  0.153961  0.833328
			 0.241806  0.121113  0.962736
			 0.129785  0.045272  0.990508
			 0.067474  0.012335  0.997645
			-0.023421  0.039844 -0.998931
			-0.005521  0.026589 -0.999631
			 0.015188 -0.006247 -0.999865
			 0.376282  0.059919 -0.924566
			 0.216229  0.154091 -0.964106
			 0.009649  0.122633 -0.992405
			 0.900749  0.187792 -0.391644
			 0.822225  0.093116 -0.561494
			 0.532895  0.096339 -0.840679
			 0.794987  0.252677  0.551498
			 0.971145  0.228198  0.069309
			 0.969370  0.184162 -0.162497
			 0.053751 -0.024125 -0.998263
			 0.029633 -0.051756 -0.998220
			 0.026913 -0.065770 -0.997472
			 0.012842 -0.083743 -0.996405
			 0.946635  0.103345 -0.305289
			 0.795361  0.024259 -0.605650
			 0.612647 -0.063401 -0.787810
			 0.287401 -0.079842 -0.954477
			 0.326870 -0.146691 -0.933615
			 0.145737 -0.098831 -0.984375
			 0.818277  0.236676  0.523839
			 0.762817  0.253775  0.594734
			 0.726274  0.228260  0.648401
			 0.221737  0.068275  0.972713
			 0.095349  0.028159  0.995046
			 0.042069 -0.020777  0.998899
			 0.045104  0.068834  0.996608
			 0.031929 -0.003702  0.999483
			 0.040817  0.064615  0.997075
			 0.385885  0.150219  0.910234
			 0.608935  0.213258  0.764015
			 0.978235  0.205911 -0.025629
			 0.944055  0.151884  0.292731
			 0.922055 -0.271631  0.275737
			 0.938268 -0.073544  0.338000
			 0.816590  0.007573  0.577168
			 0.529069  0.038819  0.847690
			 0.251936 -0.040461  0.966898
			 0.339787 -0.279180  0.898111
			 0.617332 -0.228283  0.752854
			 0.044291  0.114928  0.992386
			 0.179452  0.056922  0.982119
			 0.247663  0.041209  0.967970
			 0.207959  0.030630  0.977658
			 0.023872  0.006630  0.999693
			 0.058403  0.030648 -0.997822
			 0.187608  0.021375 -0.982011
			 0.096888  0.127108 -0.987146
			 0.374744  0.056627 -0.925397
			-0.023406  0.214867 -0.976363
			-0.153220  0.160260 -0.975110
			-0.084627  0.017217 -0.996264
			 0.580309 -0.036321 -0.813586
			 0.687741 -0.237071 -0.686156
			 0.938255 -0.020033 -0.345364
			 0.883533  0.263360  0.387312
			 0.973514  0.201354  0.108289
			 0.007291 -0.014447 -0.999869
			-0.083272 -0.048479 -0.995347
			-0.200146 -0.106371 -0.973975
			-0.290541 -0.185070 -0.938794
			-0.190041 -0.210699 -0.958901
			 0.026413 -0.257847 -0.965825
			 0.928187  0.038397 -0.370127
			 0.988255  0.152744  0.004632
			 0.587126 -0.087291 -0.804775
			 0.786602 -0.072334 -0.613209
			 0.224385 -0.267453 -0.937081
			 0.441075 -0.164929 -0.882185
			 0.853241  0.215725  0.474808
			 0.877434  0.232581  0.419542
			 0.758377  0.227445  0.610846
			 0.123471  0.037795  0.991628
			 0.116452  0.071549  0.990616
			-0.048210  0.002730  0.998834
			 0.029434  0.031244  0.999078
			-0.073878  0.010225  0.997215
			-0.224681  0.021273  0.974200
			 0.413144  0.191644  0.890272
			 0.221912  0.137970  0.965256
			 0.535443  0.202848  0.819850
			 0.676892  0.200786  0.708168
			 0.999719  0.009851 -0.021555
			 0.972044 -0.222754  0.074233
			 0.807172 -0.266411  0.526781
			 0.774645 -0.557982  0.297626
			 0.736741 -0.672316 -0.072140
			 0.770419 -0.589461 -0.242881
			 0.281043 -0.043382  0.958714
			 0.182744 -0.235181  0.954618
			 0.083144 -0.115818  0.989784
			 0.503474 -0.589168  0.631977
			 0.124443 -0.492365  0.861447
			 0.150210  0.090616  0.984493
			-0.151672  0.182393  0.971457
			-0.278214  0.090922  0.956206
			 0.627428 -0.003171  0.778668
			 0.403978 -0.236924  0.883554
			 0.171795 -0.190786  0.966482
			 0.947835  0.012528  0.318515
			 0.825174 -0.008086  0.564821
			-0.052982 -0.042910 -0.997673
			 0.015036 -0.209605 -0.977671
			 0.292821 -0.189481 -0.937205
			-0.039079 -0.103712 -0.993839
			-0.041786 -0.171194 -0.984351
			-0.125290  0.040358 -0.991299
			-0.161451  0.079926 -0.983639
			-0.163111  0.009169 -0.986565
			-0.135351  0.145721 -0.980023
			-0.130536 -0.055530 -0.989887
			 0.464860 -0.304650 -0.831320
			 0.448606 -0.551734 -0.703095
			 0.636298 -0.545758 -0.545227
			 0.893723 -0.317964 -0.316478
			 0.925256  0.232542  0.299710
			 0.897173  0.230526  0.376747
			-0.114884 -0.068508 -0.991014
			-0.126851 -0.074721 -0.989103
			-0.214015 -0.086456 -0.972997
			-0.315950 -0.167940 -0.933794
			-0.362790 -0.154564 -0.918963
			-0.328119 -0.150347 -0.932595
			-0.418808 -0.164658 -0.893022
			-0.453589 -0.274932 -0.847744
			-0.295624 -0.235193 -0.925900
			-0.126102 -0.265267 -0.955893
			-0.255918 -0.206512 -0.944383
			-0.228678 -0.222705 -0.947686
			 0.032437 -0.315658 -0.948319
			-0.078065 -0.297040 -0.951669
			 0.987515  0.105783 -0.116724
			 0.910736 -0.044526 -0.410582
			 0.984905  0.007196 -0.172945
			 0.973329  0.130738  0.188519
			 0.570063 -0.177320 -0.802238
			 0.092049 -0.297281 -0.950343
			 0.661263 -0.184937 -0.727001
			 0.857387 -0.129930 -0.498001
			 0.969117  0.097977  0.226301
			 0.956712  0.117908  0.266084
			 0.836727  0.169700  0.520662
			 0.034556  0.088411  0.995484
			-0.039895  0.038287  0.998470
			-0.154600 -0.018553  0.987803
			-0.078057  0.026194  0.996605
			-0.253568 -0.035135  0.966679
			-0.460957 -0.119714  0.879310
			-0.497030 -0.027436  0.867300
			 0.184691  0.138135  0.973040
			 0.367881  0.163260  0.915429
			 0.552879  0.191580  0.810939
			 0.718445  0.204724  0.664774
			 0.525263 -0.842709  0.118070
			 0.414789 -0.851440 -0.320937
			 0.298287 -0.820268 -0.488043
			 0.140277 -0.470562  0.871145
			 0.187914 -0.286561  0.939453
			 0.087201 -0.325470  0.941523
			 0.137798 -0.836287  0.530693
			 0.234088 -0.077330  0.969135
			 0.252695 -0.077741  0.964418
			 0.044962 -0.034020  0.998409
			-0.112847  0.127966  0.985338
			-0.115673  0.230039  0.966283
			-0.409678  0.174467  0.895391
			 0.295505 -0.422328  0.856922
			 0.362719 -0.223314  0.904746
			 0.613071 -0.343181  0.711598
			 0.591420 -0.343938  0.729335
			 0.073792 -0.359031 -0.930404
			-0.040403 -0.533304 -0.844958
			-0.064673 -0.472230 -0.879100
			 0.166386 -0.520511 -0.837487
			-0.058272 -0.263597 -0.962871
			-0.027987 -0.475880 -0.879065
			-0.181873  0.173510 -0.967893
			-0.155545  0.134238 -0.978665
			-0.065095  0.078154 -0.994814
			-0.162325  0.054488 -0.985232
			 0.026514 -0.309915 -0.950394
			-0.317313 -0.028825 -0.947883
			-0.312827  0.037300 -0.949078
			 0.225090 -0.707565 -0.669841
			 0.878030  0.185439  0.441222
			-0.331431 -0.054721 -0.941891
			-0.319432 -0.111449 -0.941033
			-0.356035 -0.089458 -0.930181
			-0.461267 -0.071637 -0.884365
			-0.444606 -0.301732 -0.843376
			-0.704485 -0.331137 -0.627733
			-0.572204 -0.375080 -0.729313
			-0.246273 -0.218237 -0.944310
			-0.147011 -0.174067 -0.973698
			-0.142365 -0.181446 -0.973041
			-0.170691 -0.283161 -0.943761
			-0.167977 -0.289060 -0.942458
			-0.214179 -0.228144 -0.949778
			 0.997448  0.002628 -0.071348
			 0.996861  0.020962  0.076339
			 0.858548  0.162402  0.486335
			 0.925414  0.093153  0.367330
			 0.364880 -0.282596 -0.887131
			-0.143172 -0.362257 -0.921017
			-0.185533 -0.362018 -0.913521
			-0.211784 -0.403840 -0.889978
			 0.537909 -0.212509 -0.815778
			 0.684236 -0.201828 -0.700776
			 0.896762 -0.138165 -0.420391
			 0.991435 -0.049484 -0.120868
			 0.866877 -0.119902 -0.483888
			 0.726458 -0.191394 -0.660021
			 0.954353  0.088253  0.285343
			 0.916547  0.132029  0.377506
			 0.787691  0.196216  0.583988
			-0.020825  0.053481  0.998352
			-0.426123 -0.096720  0.899480
			-0.423004 -0.119989  0.898148
			-0.279083 -0.032486  0.959717
			-0.393709 -0.108196  0.912845
			-0.527351 -0.186571  0.828910
			-0.641059 -0.138775  0.754841
			-0.693125 -0.235541  0.681248
			-0.713150 -0.043175  0.699680
			 0.145737  0.061346  0.987420
			 0.481264  0.158349  0.862154
			 0.307499  0.139918  0.941205
			 0.827594  0.193798  0.526811
			 0.594712  0.133732  0.792738
			 0.766003  0.183311  0.616146
			 0.094999 -0.994732 -0.038512
			-0.004631 -0.961067 -0.276278
			-0.012812 -0.950862 -0.309351
			 0.011945 -0.941502 -0.336795
			 0.060803 -0.766145 -0.639785
			 0.061017 -0.697363  0.714117
			 0.096719 -0.466548  0.879192
			 0.041999 -0.547446  0.835786
			-0.034778 -0.950005  0.310292
			 0.237556 -0.169712  0.956433
			 0.069026 -0.173457  0.982420
			-0.189225 -0.243128  0.951359
			-0.225906 -0.143318  0.963549
			-0.318507 -0.019086  0.947728
			-0.361564  0.163689  0.917866
			-0.697115  0.084299  0.711986
			 0.509762 -0.407507  0.757681
			 0.234679 -0.834438  0.498638
			 0.345219 -0.404251  0.846998
			 0.535798 -0.589163  0.604820
			-0.038149 -0.747947 -0.662661
			-0.058352 -0.599259 -0.798426
			 0.101938 -0.587115 -0.803060
			-0.008927 -0.707998 -0.706158
			-0.305351  0.161799 -0.938393
			-0.118872  0.025758 -0.992575
			-0.058447 -0.031470 -0.997794
			-0.305232  0.030680 -0.951784
			-0.129673  0.078965 -0.988408
			-0.192532  0.084653 -0.977633
			 0.008512 -0.363949 -0.931380
			 0.113722 -0.543306 -0.831797
			-0.387698  0.021028 -0.921547
			-0.311485  0.034780 -0.949615
			-0.226031  0.007365 -0.974092
			-0.378345 -0.009989 -0.925611
			-0.199254 -0.011412 -0.979881
			-0.592709 -0.005635 -0.805397
			-0.793698 -0.108794 -0.598504
			-0.262780 -0.236986 -0.935299
			-0.450786 -0.335732 -0.827089
			-0.785799 -0.381477 -0.486821
			-0.904771 -0.361458 -0.225252
			-0.959890 -0.247692 -0.131378
			-0.164909 -0.260721 -0.951225
			-0.159139 -0.353384 -0.921843
			-0.311139 -0.347172 -0.884683
			-0.215239 -0.302089 -0.928663
			-0.243104 -0.331820 -0.911480
			-0.212088 -0.296427 -0.931209
			-0.289724 -0.299649 -0.908994
			 0.987795  0.043891  0.149448
			 0.771332  0.138861  0.621099
			 0.886107  0.081646  0.456233
			 0.997127  0.001236  0.075733
			 0.987812 -0.011075  0.155258
			 0.261566 -0.240361 -0.934778
			-0.303907 -0.364439 -0.880241
			-0.330567 -0.354197 -0.874797
			-0.153279 -0.277161 -0.948518
			-0.363033 -0.343005 -0.866345
			 0.680484 -0.179980 -0.710316
			 0.936087 -0.131128 -0.326415
			 0.850667 -0.133592 -0.508448
			 0.884811 -0.156127 -0.439015
			 0.958231 -0.119627 -0.259774
			 0.943203 -0.083606 -0.321523
			 0.759439 -0.170536 -0.627829
			 0.961956 -0.067391 -0.264761
			 0.968959 -0.062195 -0.239270
			-0.284433 -0.041481  0.957798
			-0.038034  0.017579  0.999122
			-0.580478 -0.152225  0.799920
			-0.320767 -0.074736  0.944205
			-0.198775  0.000400  0.980045
			-0.405840 -0.066855  0.911496
			-0.334943 -0.063833  0.940074
			-0.501128 -0.143729  0.853354
			-0.612309 -0.155681  0.775140
			-0.629575 -0.183054  0.755068
			-0.757878 -0.207712  0.618447
			-0.923770 -0.217854  0.314942
			-0.819395 -0.193611  0.539543
			-0.872697 -0.233113  0.429020
			-0.937424 -0.132222  0.322107
			 0.229254 -0.004318  0.973357
			 0.073728 -0.026364  0.996930
			 0.332840  0.095713  0.938113
			-0.005802 -0.007950  0.999952
			 0.307728  0.049593  0.950181
			 0.443296  0.115771  0.888868
			 0.563340  0.064487  0.823704
			 0.447311 -0.038703  0.893541
			 0.380195  0.068197  0.922389
			 0.666988  0.124846  0.734534
			 0.024080 -0.996088 -0.085029
			-0.101238 -0.980396 -0.169040
			-0.006686 -0.984896 -0.173015
			-0.048340 -0.905261 -0.422097
			 0.033583 -0.783325  0.620704
			 0.094376 -0.298218  0.949821
			-0.117772 -0.446317  0.887091
			-0.466988 -0.335351  0.818206
			-0.524419 -0.235641  0.818204
			-0.572875 -0.290977  0.766255
			-0.590800 -0.046033  0.805504
			-0.762650 -0.024927  0.646331
			-0.866120 -0.092985  0.491111
			-0.830724 -0.008363  0.556622
			-0.828588 -0.002877  0.559852
			 0.378348 -0.828774  0.412295
			 0.305409 -0.937017  0.169481
			 0.310265 -0.932093 -0.186920
			 0.190617 -0.949539 -0.249079
			 0.302499 -0.733305  0.608899
			 0.065255 -0.582447  0.810245
			 0.135046 -0.804984 -0.577723
			 0.197421 -0.716223 -0.669365
			 0.051309 -0.731634 -0.679764
			 0.087742 -0.845874 -0.526116
			 0.029133 -0.883092 -0.468295
			-0.331451  0.029255 -0.943019
			-0.651178  0.031597 -0.758267
			-0.044833 -0.199377 -0.978897
			-0.644402 -0.159953 -0.747771
			-0.358036 -0.074649 -0.930719
			-0.501441  0.041669 -0.864188
			-0.187667  0.091517 -0.977960
			 0.098368 -0.623533 -0.775584
			 0.007871 -0.523443 -0.852024
			-0.413667 -0.024702 -0.910093
			-0.271411  0.021666 -0.962220
			-0.762823 -0.138494 -0.631602
			-0.892838 -0.116983 -0.434919
			-0.970973 -0.103944 -0.215425
			-0.610387 -0.395722 -0.686172
			-0.535905 -0.377388 -0.755238
			-0.934370 -0.335708  0.119387
			-0.835475 -0.438568 -0.331120
			-0.918362 -0.371648  0.135975
			-0.945168 -0.286034  0.157617
			-0.248839 -0.368374 -0.895757
			-0.164219 -0.429369 -0.888073
			-0.138948 -0.351516 -0.925813
			-0.208848 -0.446160 -0.870244
			-0.245046 -0.425274 -0.871260
			-0.225910 -0.362727 -0.904098
			-0.320362 -0.257186 -0.911714
			-0.237914 -0.334668 -0.911808
			-0.278235 -0.326172 -0.903436
			-0.471915 -0.351644 -0.808481
			 0.758801  0.076708  0.646789
			 0.770200  0.067727  0.634197
			 0.819496  0.113691  0.561695
			 0.801806  0.080534  0.592133
			 0.830965  0.085801  0.549669
			 0.927924  0.039134  0.370710
			 0.996176  0.069931 -0.052381
			 0.979675  0.030870  0.198201
			 0.194169 -0.303501 -0.932837
			-0.242921 -0.366414 -0.898182
			 0.917733 -0.129633 -0.375448
			 0.578549 -0.244781 -0.778051
			 0.869020 -0.161219 -0.467774
			 0.903723 -0.138011 -0.405263
			 0.835290 -0.175849 -0.520930
			 0.803503 -0.228526 -0.549690
			 0.864305 -0.193846 -0.464113
			 0.945571 -0.020322 -0.324781
			-0.194060 -0.011635  0.980921
			-0.104239 -0.036213  0.993893
			-0.453274 -0.176928  0.873636
			-0.379882 -0.114374  0.917937
			-0.293136 -0.062419  0.954031
			-0.656244 -0.175030  0.733967
			-0.633496 -0.188415  0.750455
			-0.629896 -0.303900  0.714755
			-0.689631 -0.273203  0.670648
			-0.723007 -0.255601  0.641817
			-0.723510 -0.180473  0.666305
			-0.977078 -0.212193  0.017136
			-0.846176 -0.248318  0.471512
			-0.967767 -0.241805 -0.070404
			-0.940329 -0.072932  0.332358
			-0.875095 -0.151331 -0.459683
			-0.994491 -0.089895 -0.053912
			 0.169323 -0.054657  0.984044
			 0.261810 -0.105220  0.959367
			-0.086845 -0.142886  0.985922
			 0.122271 -0.148444  0.981333
			 0.594311  0.003599  0.804227
			 0.711576  0.045992  0.701102
			 0.672244  0.101142  0.733388
			 0.433673  0.037259  0.900300
			 0.326983 -0.112845  0.938269
			 0.679448  0.038545  0.732710
			-0.422066 -0.547945  0.722230
			 0.117014 -0.838264  0.532560
			-0.690128 -0.327730  0.645226
			-0.675716 -0.390152  0.625451
			-0.781949 -0.227536  0.580331
			-0.953938 -0.099198  0.283128
			-0.954449 -0.162738  0.250088
			-0.883189 -0.266816  0.385728
			 0.235382 -0.971734  0.018097
			-0.104663 -0.944384  0.311743
			 0.224964 -0.865971 -0.446638
			 0.128235 -0.944271 -0.303165
			 0.286378 -0.835199 -0.469500
			 0.055790 -0.833148 -0.550229
			-0.678324 -0.113953 -0.725873
			-0.094319 -0.229006 -0.968845
			-0.388129 -0.161169 -0.907403
			-0.962762 -0.110106 -0.246914
			-0.903137 -0.117691 -0.412907
			-0.928161 -0.287598 -0.236230
			-0.776368 -0.229346 -0.587071
			-0.617446 -0.100287 -0.780194
			-0.875674 -0.050850 -0.480218
			-0.522872 -0.002570 -0.852407
			-0.775705 -0.086780 -0.625101
			-0.030502 -0.773446 -0.633128
			-0.164749 -0.554081 -0.815998
			-0.182002 -0.379317 -0.907190
			-0.281877 -0.717118 -0.637406
			-0.716343 -0.468030 -0.517494
			-0.805338 -0.378430  0.456312
			-0.923337 -0.381786  0.041096
			-0.870349 -0.492425 -0.003189
			-0.898232 -0.418710  0.133644
			-0.825091 -0.396926  0.402087
			-0.211364 -0.393288 -0.894791
			-0.284525 -0.376830 -0.881501
			-0.041274 -0.438656 -0.897707
			-0.349600 -0.458264 -0.817174
			-0.188423 -0.467402 -0.863732
			-0.208233 -0.439563 -0.873741
			-0.192239 -0.435665 -0.879341
			-0.227612 -0.396832 -0.889223
			-0.214458 -0.404962 -0.888827
			-0.184141 -0.410118 -0.893250
			-0.229982 -0.360766 -0.903856
			-0.387563 -0.446532 -0.806476
			-0.300909 -0.375496 -0.876617
			-0.195574 -0.337555 -0.920765
			-0.557742 -0.471784 -0.682894
			 0.808105  0.005206  0.589016
			 0.794913  0.019209  0.606419
			 0.962748  0.012825  0.270094
			 0.827318  0.035245  0.560628
			 0.983621  0.016265  0.179512
			 0.885432  0.098471  0.454217
			 0.961894  0.158684  0.222664
			 0.933615  0.296851 -0.200603
			 0.928233  0.370497  0.033410
			 0.632950 -0.250362 -0.732594
			 0.464620 -0.373422 -0.802922
			 0.595879 -0.324652 -0.734526
			 0.098005 -0.412114 -0.905846
			 0.745817 -0.219788 -0.628848
			 0.717835 -0.258549 -0.646426
			 0.836273 -0.060740 -0.544939
			 0.936864  0.239521 -0.254785
			-0.198064 -0.070431  0.977656
			-0.471746 -0.217636  0.854453
			-0.458800 -0.252615  0.851873
			-0.796723 -0.361925  0.483986
			-0.773228 -0.415020  0.479455
			-0.701094 -0.365501  0.612272
			-0.805275 -0.356197  0.473978
			-0.159125 -0.534690  0.829932
			-0.996897 -0.072368 -0.030954
			 0.225310 -0.186756  0.956220
			-0.111175 -0.183387  0.976734
			-0.204552 -0.251670  0.945950
			 0.044254 -0.221519  0.974151
			-0.051354 -0.204433  0.977533
			 0.090470 -0.204889  0.974595
			 0.729026  0.089233  0.678644
			 0.232297 -0.007835  0.972613
			 0.543967  0.078319  0.835444
			 0.533661  0.335230  0.776419
			 0.321171  0.272292  0.907031
			 0.163414 -0.112112  0.980167
			 0.708421  0.334325  0.621584
			 0.777199  0.289681  0.558611
			 0.711496  0.196505  0.674655
			 0.690514  0.192299  0.697288
			-0.232736 -0.789240  0.568272
			-0.674246 -0.592662  0.440618
			-0.747720 -0.447286  0.490764
			-0.808027 -0.348269  0.475185
			-0.896104 -0.312920  0.314769
			-0.955399 -0.276891  0.102683
			-0.123615 -0.992031 -0.024382
			-0.653674 -0.642999  0.399078
			-0.410601 -0.895202  0.173261
			-0.215967 -0.952864 -0.213093
			-0.335889 -0.899390 -0.279779
			-0.808309 -0.400070 -0.431950
			-0.507572 -0.382130 -0.772236
			-0.949021 -0.282222  0.140391
			-0.941691 -0.172272 -0.289034
			-0.366455 -0.512394 -0.776636
			-0.576358 -0.596409 -0.558666
			-0.591421 -0.757461 -0.276539
			-0.769944 -0.548288 -0.326445
			-0.846316 -0.498638  0.187377
			 0.969715 -0.127845  0.208109
			-0.857387 -0.426006  0.288800
			 0.755031 -0.371311  0.540423
			-0.815908 -0.353865  0.457245
			-0.404682 -0.414944 -0.814895
			-0.183610 -0.323340 -0.928299
			-0.128236 -0.267019 -0.955121
			-0.246058 -0.368635 -0.896417
			-0.234750 -0.332705 -0.913346
			-0.375903 -0.280014 -0.883340
			-0.005253 -0.418737 -0.908092
			 0.024982 -0.420358 -0.907014
			-0.355932 -0.427114 -0.831195
			-0.251949 -0.306204 -0.918020
			-0.242131 -0.405194 -0.881584
			-0.223902 -0.394850 -0.891045
			-0.005276 -0.384328 -0.923182
			-0.230240 -0.364691 -0.902214
			-0.254884 -0.375235 -0.891197
			-0.151781 -0.332172 -0.930927
			-0.512295 -0.525601 -0.679188
			-0.430765 -0.470470 -0.770130
			-0.433656 -0.367043 -0.822935
			-0.315022 -0.398060 -0.861574
			 0.930712  0.007265  0.365681
			 0.735484  0.112384  0.668157
			 0.791015  0.139542  0.595670
			 0.904208  0.321780  0.280830
			 0.779183  0.602373 -0.173265
			 0.860237  0.493491 -0.128292
			 0.838998  0.544097  0.006378
			 0.174840 -0.398714 -0.900254
			 0.395695 -0.306257 -0.865813
			 0.642207 -0.107648 -0.758935
			 0.724170  0.244128 -0.644965
			 0.881998  0.161289 -0.442793
			 0.838133  0.443995 -0.316860
			-0.651962 -0.405848  0.640494
			-0.438475 -0.366084  0.820806
			-0.676338 -0.440349  0.590473
			-0.753673 -0.437687  0.490314
			-0.239894 -0.235343  0.941841
			-0.112768 -0.178875  0.977388
			-0.139898 -0.181374  0.973413
			-0.114009 -0.212877  0.970405
			-0.151570 -0.111679  0.982117
			-0.113862 -0.109268  0.987469
			-0.175651 -0.144099  0.973849
			-0.050681 -0.100698  0.993625
			 0.696698  0.305520  0.649053
			 0.160570 -0.284877  0.945020
			 0.001332 -0.100278  0.994959
			 0.148594  0.434879  0.888144
			 0.026357  0.383130  0.923319
			 0.006533  0.199862  0.979802
			 0.383529  0.488565  0.783715
			 0.744650  0.421382  0.517622
			 0.617124  0.631648  0.469232
			 0.734307  0.444351  0.513171
			 0.598244  0.660750  0.453336
			 0.616520  0.570439  0.542680
			-0.811227 -0.403474  0.423226
			-0.834012 -0.427019  0.349398
			-0.525475 -0.841344  0.126556
			-0.720392 -0.557407  0.412715
			-0.669747 -0.728825  0.142314
			-0.625539 -0.775309 -0.087160
			-0.911131 -0.411640  0.019814
			-0.764170 -0.596673 -0.245000
			-0.825453 -0.422129  0.374746
			-0.783858 -0.619801  0.037587
			-0.813958 -0.539725  0.214873
			-0.599699 -0.521037 -0.607357
			-0.869475 -0.492975 -0.031449
			-0.685678 -0.474372  0.552102
			-0.231250 -0.273369 -0.933699
			-0.201132 -0.342460 -0.917751
			-0.293169 -0.043231 -0.955083
			-0.342401 -0.162902 -0.925324
			-0.304389  0.165690 -0.938027
			 0.126872 -0.333897 -0.934032
			-0.010158 -0.213022 -0.976995
			 0.047624 -0.372651 -0.926749
			-0.153495 -0.085009 -0.984486
			-0.293644 -0.439793 -0.848737
			 0.429521 -0.272221 -0.861050
			 0.786439 -0.241669 -0.568428
			-0.145547 -0.155540 -0.977048
			 0.767856 -0.182901 -0.613958
			-0.418405 -0.161274 -0.893828
			-0.351235 -0.106750 -0.930182
			-0.442290 -0.425273 -0.789634
			-0.493711 -0.470198 -0.731549
			-0.672484 -0.399143 -0.623257
			 0.793975  0.359639  0.490167
			 0.894049  0.374213  0.246255
			 0.874958  0.482117  0.044854
			 0.488644  0.821304 -0.294425
			 0.669188  0.722968 -0.171771
			 0.678366  0.640357 -0.360226
			 0.732520  0.670110 -0.119865
			 0.141739 -0.354989 -0.924063
			 0.385001 -0.156669 -0.909521
			 0.621276 -0.003552 -0.783584
			 0.519455  0.081017 -0.850649
			 0.587650  0.243431 -0.771627
			 0.538069  0.472724 -0.697863
			 0.572266  0.631229 -0.523508
			-0.517027 -0.374266  0.769811
			-0.364153 -0.259645  0.894415
			-0.449439 -0.184784  0.873991
			-0.283114 -0.144005  0.948214
			-0.168443 -0.120906  0.978268
			-0.187932 -0.110852  0.975906
			-0.270123  0.062109  0.960820
			-0.167224  0.037945  0.985188
			-0.357971  0.041391  0.932815
			-0.273949  0.051892  0.960343
			 0.680576  0.559659  0.472862
			-0.168258  0.061823  0.983802
			-0.213454  0.224524  0.950803
			-0.126821  0.580181  0.804554
			 0.118337  0.596068  0.794166
			-0.159978  0.384854  0.909007
			 0.449895  0.630154  0.632851
			 0.203392  0.757992  0.619742
			 0.658265  0.684081  0.314198
			 0.364364  0.929442  0.058105
			 0.406057  0.827700  0.387337
			 0.537781  0.709812  0.454927
			 0.427600  0.757918  0.492665
			 0.501309  0.726701  0.469675
			 0.410919  0.908593  0.074859
			 0.455263  0.846198  0.276920
			 0.432310  0.893133  0.124187
			 0.421400  0.790418  0.444591
			-0.813109 -0.459738  0.357064
			-0.789555 -0.500599 -0.354970
			-0.530530 -0.504800 -0.680966
			-0.889678 -0.397352 -0.224911
			-0.887079 -0.450511  0.100647
			-0.544887 -0.292177  0.785958
			-0.668713 -0.223386  0.709170
			-0.313042  0.011066 -0.949675
			-0.331437  0.152643 -0.931048
			-0.259807  0.063145 -0.963594
			-0.229971  0.290419 -0.928854
			-0.400475  0.496828 -0.769923
			-0.279408  0.586940 -0.759890
			-0.298409  0.529110 -0.794352
			 0.246334 -0.046958 -0.968047
			 0.123624  0.052156 -0.990958
			-0.116624  0.154328 -0.981112
			 0.022704  0.074434 -0.996967
			-0.462526 -0.486971 -0.740897
			-0.454998 -0.309033 -0.835150
			-0.408396 -0.092424 -0.908114
			-0.162727 -0.158688 -0.973826
			-0.092735 -0.101788 -0.990474
			 0.943113 -0.034706 -0.330657
			 0.781022 -0.015800 -0.624303
			-0.315637 -0.018997 -0.948690
			-0.411067 -0.028001 -0.911175
			-0.416660  0.104172 -0.903074
			-0.702872 -0.477438 -0.527279
			-0.749656 -0.366931 -0.550798
			-0.757078 -0.310726 -0.574701
			-0.615188 -0.379215 -0.691187
			 0.815694  0.544360  0.195743
			 0.797160  0.603652 -0.011877
			 0.334703  0.748590 -0.572352
			 0.365737  0.914136 -0.174903
			 0.132028  0.970249 -0.202942
			 0.587023  0.803176 -0.101552
			 0.381423  0.359010 -0.851838
			-0.626733 -0.050445  0.777599
			-0.547032 -0.115080  0.829164
			-0.459372 -0.160962  0.873538
			-0.452276 -0.074240  0.888783
			-0.435003  0.325806  0.839418
			-0.319141  0.302741  0.898052
			-0.511196  0.063593  0.857108
			-0.559577  0.418780  0.715190
			 0.651521  0.735194  0.187109
			-0.316017  0.426715  0.847377
			-0.380468  0.355853  0.853588
			-0.354107  0.459416  0.814582
			-0.345673  0.744556  0.571093
			-0.081793  0.790895  0.606460
			 0.173195  0.945858  0.274512
			 0.005610  0.949523  0.313646
			 0.297887  0.912110  0.281634
			-0.078541  0.967728  0.239446
			 0.316000  0.925050  0.210778
			 0.479283  0.831252  0.281616
			 0.364283  0.929482  0.057975
			 0.148530  0.853656 -0.499210
			 0.367445  0.848770  0.380229
			-0.823260 -0.322516  0.467148
			-0.876906 -0.388117  0.283550
			-0.956182 -0.289492  0.043715
			-0.966079 -0.247379 -0.074126
			-0.962158 -0.175412 -0.208523
			-0.896926 -0.346762  0.274372
			-0.816111 -0.163702  0.554224
			-0.077534  0.162780 -0.983611
			-0.374497  0.447320 -0.812193
			-0.367729  0.305996 -0.878147
			-0.311566  0.241171 -0.919110
			-0.306592  0.515798 -0.799971
			-0.335413  0.520711 -0.785085
			-0.038959  0.672363 -0.739196
			-0.020702  0.463970 -0.885609
			-0.141718  0.589524 -0.795222
			-0.368719  0.632497 -0.681172
			-0.056537  0.688083 -0.723426
			 0.738994  0.517254 -0.431665
			 0.147824  0.298938 -0.942754
			-0.549736 -0.070968 -0.832318
			-0.734095 -0.107840 -0.670430
			-0.583999  0.319351 -0.746297
			 0.416202  0.110567 -0.902525
			-0.318000  0.023692 -0.947795
			-0.471121  0.504874 -0.723289
			-0.463626  0.665419 -0.585037
			-0.393445  0.326789 -0.859308
			-0.937653  0.021956 -0.346878
			 0.528639  0.845130 -0.079351
			 0.182238  0.614386 -0.767671
			 0.077828  0.821936 -0.564238
			-0.058122  0.991142 -0.119417
			 0.020668  0.976951 -0.212461
			 0.388509  0.911759 -0.133254
			 0.097128  0.941945 -0.321411
			-0.042551  0.997769 -0.051448
			 0.713352  0.698586 -0.055728
			-0.784571  0.118711  0.608569
			-0.717828  0.044918  0.694770
			-0.701322 -0.039402  0.711755
			-0.596723  0.131671  0.791570