<?xml version="1.0"?>
<VTKFile type="PolyData" version="0.1" byte_order="LittleEndian" compressor="vtkZLibDataCompressor">
	<PolyData>
		<Piece NumberOfPoints="2591" NumberOfVerts="0" NumberOfLines="0" NumberOfStrips="0" NumberOfPolys="5178">
		<PointData Normals="Normals">
		<DataArray type="Float32" Name="Normals" NumberOfComponents="3" format="ascii">
			-0.793125 -0.479764  0.375205
			-0.719464 -0.365640  0.590491
			-0.690657 -0.327393  0.644831
			-0.813415 -0.376610  0.443307
			-0.711739 -0.637838  0.294261
			-0.854195 -0.512432  0.088113
			-0.748151 -0.649108  0.137580
			-0.661065 -0.293892  0.690377
			-0.734682 -0.360732  0.574556
			-0.675951 -0.262879  0.688466
			-0.681664 -0.413827  0.603391
			-0.921211 -0.388688  0.017069
			-0.701988 -0.462633  0.541464
			-0.945804 -0.259979  0.194591
			-0.911415 -0.290762  0.291171
			-0.819844 -0.384664  0.424135
			-0.509662 -0.830916  0.223212
			-0.722218 -0.559830  0.406192
			-0.524286 -0.843071  0.119813
			-0.588711 -0.806101 -0.060174
			-0.787815 -0.602400 -0.128304
			-0.875975 -0.455480 -0.158761
			-0.868737 -0.448710 -0.209653
			-0.707073 -0.705724 -0.044734
			-0.717857 -0.348105  0.602913
			-0.773338 -0.305730  0.555408
			-0.779902 -0.244912  0.575996
			-0.687670 -0.466590  0.556240
			-0.845577 -0.329235 -0.420243
			-0.823548 -0.389418 -0.412458
			-0.961928 -0.251333 -0.107362
			-0.627409 -0.487134  0.607502
			-0.724465 -0.506651  0.467391
			-0.960776 -0.246580  0.126918
			-0.979438 -0.121841 -0.160797
			-0.984598 -0.153142  0.084352
			-0.971335 -0.178661  0.156805
			-0.864658 -0.353465  0.356972
			-0.918546 -0.268634  0.290015
			-0.607865 -0.672722  0.421836
			-0.306869 -0.951589  0.017618
			-0.295946 -0.952597  0.070534
			-0.445831 -0.849454  0.282247
			-0.746916 -0.385693  0.541624
			-0.347797 -0.937478 -0.013121
			-0.403974 -0.902722 -0.147983
			-0.343478 -0.850082 -0.399230
			-0.554831 -0.766182 -0.324234
			-0.718282 -0.613756 -0.327681
			-0.578237 -0.674558 -0.458927
			-0.790717 -0.494434 -0.360972
			-0.853450 -0.353160 -0.383276
			-0.817693 -0.277185 -0.504527
			-0.789396 -0.396675 -0.468512
			-0.844211 -0.315917 -0.433018
			-0.798736 -0.298391  0.522478
			-0.763440 -0.356783  0.538391
			-0.761390 -0.302257  0.573520
			-0.732302 -0.407234  0.545798
			-0.721201 -0.411053  0.557589
			-0.732459 -0.414626  0.539990
			-0.657266 -0.366542  0.658520
			-0.711556 -0.167345 -0.682411
			-0.791608 -0.222141 -0.569219
			-0.894564 -0.226465 -0.385316
			-0.518733 -0.309372  0.796998
			-0.690031 -0.450929  0.566144
			-0.598628 -0.424404  0.679357
			-0.849534 -0.375285  0.370746
			-0.812018 -0.365387  0.455104
			-0.802637 -0.071268 -0.592195
			-0.904459  0.111897 -0.411623
			-0.997051  0.049879 -0.058318
			-0.986772  0.047976 -0.154851
			-0.995644  0.035096 -0.086384
			-0.988897 -0.073053  0.129406
			-0.966357 -0.079135  0.244728
			-0.968765 -0.107403  0.223514
			-0.555103 -0.688921  0.466099
			-0.642248 -0.575544  0.506227
			-0.087772 -0.965294 -0.245976
			-0.197677 -0.916083 -0.348879
			-0.109448 -0.992767 -0.049353
			-0.237053 -0.939555  0.247066
			-0.161022 -0.984003  0.076228
			-0.462141 -0.777931  0.425734
			-0.164125 -0.787227 -0.594421
			-0.346977 -0.719498 -0.601607
			-0.650491 -0.598126 -0.468089
			-0.580318 -0.498852 -0.643722
			-0.414781 -0.598129 -0.685710
			-0.783811 -0.204321 -0.586424
			-0.670910 -0.223813 -0.706956
			-0.725201 -0.146561 -0.672758
			-0.658967 -0.099634 -0.745544
			-0.699765 -0.341588 -0.627413
			-0.740367 -0.295986 -0.603530
			-0.703491 -0.191123  0.684524
			-0.496368 -0.429680  0.754316
			-0.566851 -0.321800  0.758370
			-0.693872 -0.252800  0.674265
			-0.647121 -0.453552  0.612800
			-0.622383 -0.547652  0.559211
			-0.628196 -0.547920  0.552407
			-0.626336 -0.570406  0.531357
			-0.463823 -0.628298  0.624588
			-0.539275 -0.201183  0.817746
			-0.593160 -0.270325  0.758344
			-0.629341 -0.005549 -0.777110
			-0.540173  0.190216 -0.819775
			-0.439017 -0.076934  0.895179
			-0.574247 -0.319193  0.753894
			-0.402840 -0.072163  0.912421
			-0.354985 -0.039163  0.934051
			-0.596490 -0.145204  0.789376
			-0.726928 -0.290502  0.622242
			-0.925011 -0.149058  0.349480
			-0.872836 -0.116993  0.473783
			-0.688135  0.102965 -0.718240
			-0.912019  0.208345 -0.353290
			-0.703558  0.270611 -0.657096
			-0.956157  0.096200 -0.276604
			-0.999134  0.041597 -0.000773
			-0.951515  0.031827  0.305951
			-0.979968 -0.020135  0.198135
			-0.980600 -0.045982 -0.190550
			-0.107551 -0.814670 -0.569864
			 0.041890 -0.890864 -0.452334
			 0.055463 -0.983435 -0.172566
			-0.103791 -0.810167 -0.576938
			-0.001732 -0.996120  0.087983
			-0.076092 -0.951160  0.299174
			-0.160289 -0.897660  0.410504
			-0.461543 -0.711981  0.529208
			-0.097175 -0.656753 -0.747818
			-0.035805 -0.715172 -0.698030
			-0.157285 -0.638061 -0.753751
			-0.205658 -0.578546 -0.789297
			-0.286305 -0.483648 -0.827112
			-0.446608 -0.350172 -0.823360
			-0.508617 -0.297543 -0.807946
			-0.355358 -0.120732 -0.926900
			-0.343473 -0.224385 -0.911964
			-0.593870 -0.000887 -0.804561
			-0.454120  0.009898 -0.890885
			-0.539888 -0.192553  0.819417
			-0.381014 -0.182735  0.906331
			-0.350954 -0.404783  0.844383
			-0.371767 -0.600386  0.708044
			-0.191588 -0.584442  0.788493
			-0.338605 -0.294438  0.893674
			-0.231660 -0.805682  0.545170
			-0.196952 -0.705588  0.680702
			-0.276459 -0.646303  0.711240
			-0.481919 -0.168880  0.859787
			-0.280720 -0.127498  0.951283
			-0.291815 -0.110352  0.950088
			-0.336264 -0.077286  0.938591
			-0.514468  0.134069 -0.846964
			-0.505932  0.297924 -0.809490
			-0.382758  0.332089 -0.862098
			-0.289944  0.443429 -0.848118
			-0.388106  0.291010 -0.874464
			-0.341091  0.465808 -0.816504
			-0.158483  0.028952  0.986937
			-0.302173 -0.018882  0.953066
			-0.277870 -0.006271  0.960598
			-0.258447  0.060866  0.964106
			-0.226116  0.047250  0.972954
			-0.467963  0.051215  0.882263
			-0.377114  0.046314  0.925008
			-0.708779 -0.016088  0.705247
			-0.889280  0.030838  0.456322
			-0.839545  0.010122  0.543196
			-0.807671  0.219026 -0.547444
			-0.546373  0.341990 -0.764539
			-0.954435  0.002109 -0.298410
			-0.851559  0.044536 -0.522363
			-0.912278  0.005272  0.409537
			 0.848081  0.082988  0.523327
			-0.963011 -0.065639  0.261346
			-0.989730 -0.142943  0.001084
			-0.911937 -0.187376 -0.365051
			-0.877283 -0.149497 -0.456097
			-0.808188 -0.085431 -0.582695
			-0.879689  0.007955 -0.475483
			 0.105653 -0.774062 -0.624231
			 0.154307 -0.937172 -0.312885
			 0.197562 -0.979061 -0.049082
			 0.379620 -0.914591  0.139331
			 0.110513 -0.927058  0.358261
			 0.037176 -0.862253  0.505112
			-0.052818 -0.567026 -0.822004
			 0.135357 -0.576406 -0.805875
			-0.022824 -0.482561 -0.875565
			-0.168512 -0.378080 -0.910308
			-0.249806 -0.308085 -0.917976
			-0.090421 -0.241925 -0.966073
			-0.097827 -0.127775 -0.986967
			-0.281259 -0.093047 -0.955110
			-0.496721  0.185360 -0.847886
			-0.242873 -0.013204 -0.969968
			-0.413103  0.158796 -0.896733
			-0.078346 -0.333914  0.939342
			-0.114709 -0.160712  0.980313
			-0.193925 -0.407256  0.892488
			 0.099193 -0.693424  0.713669
			 0.056312 -0.556193  0.829143
			-0.129397 -0.103476  0.986179
			 0.081546 -0.076715  0.993713
			 0.099758 -0.059488  0.993232
			-0.161714 -0.023628  0.986555
			-0.396658  0.297102 -0.868558
			-0.244330  0.270560 -0.931182
			-0.307426  0.142329 -0.940867
			-0.447359  0.145179 -0.882492
			-0.599942  0.196344 -0.775576
			-0.205168  0.520067 -0.829118
			-0.262702  0.478437 -0.837906
			 0.162833  0.019593  0.986459
			 0.079874  0.105832  0.991171
			-0.073430  0.076907  0.994331
			-0.033984  0.019579  0.999231
			-0.028481  0.010405  0.999540
			-0.236636 -0.011767  0.971527
			-0.319054  0.011081  0.947672
			-0.550834  0.078906  0.830877
			-0.595493 -0.109615  0.795847
			-0.617235  0.014838  0.786639
			-0.370404  0.008285  0.928834
			-0.410097 -0.067607  0.909533
			-0.869471  0.000733  0.493984
			 0.984228  0.021943  0.175536
			-0.900097 -0.036035  0.434197
			-0.782429 -0.008127  0.622687
			-0.700306  0.012161 -0.713739
			-0.655408 -0.123611  0.745091
			-0.973303 -0.149016  0.174570
			-0.927235 -0.152146  0.342178
			-0.971874 -0.169300  0.163704
			-0.963667 -0.261411 -0.054867
			-0.764586 -0.174754 -0.620378
			-0.836420 -0.260785 -0.482072
			-0.607074 -0.107672 -0.787317
			 0.258411 -0.759117 -0.597465
			 0.218564 -0.632810 -0.742820
			 0.345125 -0.912499 -0.219625
			 0.321495 -0.849991 -0.417320
			 0.437630 -0.883566 -0.166706
			 0.508103 -0.791552  0.339525
			 0.399431 -0.817475  0.414958
			 0.601734 -0.792586  0.098610
			 0.311051 -0.813093  0.492064
			 0.174770 -0.787296  0.591287
			 0.150343 -0.583745 -0.797897
			 0.169590 -0.473471 -0.864329
			-0.040933 -0.370629 -0.927879
			 0.114294 -0.366125 -0.923520
			 0.122922 -0.264821 -0.956431
			 0.116343 -0.191987 -0.974477
			-0.001626  0.007208 -0.999973
			-0.369287  0.369344 -0.852767
			-0.435686  0.365079 -0.822736
			-0.250499  0.174431 -0.952273
			-0.158081  0.070183 -0.984929
			 0.257869 -0.459294  0.850031
			 0.159691 -0.326005  0.931783
			 0.038307 -0.140365  0.989359
			 0.047701 -0.231386  0.971692
			 0.257506 -0.619325  0.741705
			 0.360425 -0.669161  0.649859
			 0.330259 -0.587245  0.738967
			 0.829937 -0.029169  0.557095
			-0.071257 -0.073648  0.994735
			 0.584129 -0.035879  0.810868
			 0.947874 -0.025131  0.317654
			-0.356959  0.522678 -0.774202
			-0.249034  0.292363 -0.923312
			-0.324056  0.363675 -0.873343
			-0.345897  0.228489 -0.910026
			-0.226734 -0.013224 -0.973867
			-0.324470  0.121167 -0.938103
			-0.394002 -0.071338 -0.916337
			-0.533911  0.065867 -0.842971
			-0.262830  0.520873 -0.812165
			-0.282958  0.621612 -0.730434
			 0.178669  0.094655  0.979346
			 0.036147  0.012739  0.999265
			 0.096648  0.059022  0.993567
			 0.129798  0.043875  0.990569
			 0.145213  0.014269  0.989298
			 0.192130  0.080786  0.978039
			 0.098051  0.095886  0.990551
			-0.109956  0.006507  0.993915
			-0.351609 -0.010061  0.936093
			-0.256826 -0.017623  0.966297
			-0.794541 -0.099905  0.598935
			-0.474327 -0.103557  0.874237
			-0.627104 -0.124743  0.768882
			-0.732440 -0.165041  0.660525
			-0.304605 -0.051179  0.951103
			-0.308078 -0.062504  0.949306
			-0.970409 -0.191156  0.147531
			-0.844214 -0.303022  0.442132
			-0.925255 -0.365196  0.102643
			-0.883654 -0.301468 -0.358152
			-0.669731 -0.250499 -0.699079
			-0.606451 -0.214829 -0.765549
			-0.746007 -0.255470 -0.614986
			-0.515217 -0.199067 -0.833621
			 0.405722 -0.719051 -0.564230
			 0.362432 -0.604772 -0.709151
			 0.505254 -0.808685 -0.301241
			 0.566489 -0.766395  0.302868
			 0.464582 -0.754531  0.463515
			 0.637123 -0.694379  0.334533
			 0.587290 -0.654976  0.475497
			 0.633732 -0.760778  0.140005
			 0.601565 -0.766493 -0.224960
			 0.079967 -0.475870 -0.875873
			 0.295287 -0.567933 -0.768282
			 0.046900 -0.575744 -0.816284
			 0.217902 -0.297676 -0.929466
			-0.002251 -0.080689 -0.996737
			-0.117320 -0.260385 -0.958350
			 0.060612 -0.323223 -0.944380
			-0.037421  0.171290 -0.984510
			 0.029019 -0.011762 -0.999510
			-0.105551  0.225526 -0.968502
			-0.217867  0.272874 -0.937056
			-0.246752  0.419658 -0.873499
			-0.194735  0.220984 -0.955638
			 0.422891 -0.428249  0.798603
			 0.242331 -0.323706  0.914598
			 0.237259 -0.273022  0.932291
			-0.005574 -0.059535  0.998211
			 0.450433 -0.568461  0.688449
			 0.537189 -0.505280  0.675367
			-0.314732  0.572571 -0.757038
			-0.368513  0.558793 -0.742932
			-0.391930  0.358749 -0.847166
			-0.382157  0.343518 -0.857876
			-0.191870  0.194852 -0.961883
			-0.096378 -0.006384 -0.995324
			-0.212966 -0.125392 -0.968980
			-0.396020 -0.196692 -0.896929
			 0.186321  0.017583  0.982332
			 0.413754  0.007131  0.910361
			 0.414879  0.014408  0.909763
			 0.249557  0.123013  0.960515
			 0.240040  0.074386  0.967909
			 0.134299 -0.067977  0.988607
			 0.267834  0.068895  0.960999
			 0.281596  0.053846  0.958021
			 0.263023  0.130382  0.955939
			 0.389334  0.126435  0.912378
			-0.017881  0.042628  0.998931
			 0.116420  0.100607  0.988092
			-0.136560  0.024150  0.990337
			-0.433414 -0.039676  0.900321
			-0.573340 -0.108295  0.812129
			-0.351052 -0.034013  0.935738
			-0.335312 -0.022991  0.941827
			-0.666711 -0.164391  0.726961
			-0.188003  0.026070  0.981822
			-0.905010 -0.387156  0.176260
			-0.863087 -0.380206  0.332451
			-0.783177 -0.274702  0.557829
			-0.635026 -0.206604  0.744350
			-0.930614 -0.353689 -0.094138
			-0.708378 -0.231305 -0.666857
			-0.888438 -0.332174 -0.316762
			-0.807678 -0.295859 -0.510024
			-0.456682 -0.251597 -0.853312
			-0.466379 -0.239669 -0.851498
			-0.554560 -0.225216 -0.801088
			 0.525191 -0.677866 -0.514463
			 0.469472 -0.684301 -0.557968
			 0.628706 -0.545673  0.554049
			 0.542944 -0.736483  0.403489
			 0.487167 -0.851944  0.191988
			 0.415678 -0.888468 -0.194518
			 0.459971 -0.886382 -0.052474
			 0.427252 -0.833585 -0.350130
			 0.263994 -0.399718 -0.877800
			 0.219193 -0.783613 -0.581296
			 0.196436 -0.437359 -0.877571
			 0.121571 -0.650656 -0.749578
			 0.146847 -0.347563 -0.926087
			-0.275082 -0.177435 -0.944906
			-0.132202  0.027158 -0.990851
			-0.490306 -0.133862 -0.861209
			-0.222434 -0.378599 -0.898435
			-0.343239 -0.330456 -0.879196
			 0.017083 -0.456553 -0.889532
			-0.219310 -0.404076 -0.888046
			-0.101353  0.265938 -0.958647
			-0.157080  0.427646 -0.890194
			 0.475675 -0.387111  0.789860
			 0.588011 -0.410993  0.696655
			 0.379498 -0.334383  0.862652
			 0.343314 -0.193235  0.919128
			-0.286291  0.543305 -0.789213
			-0.370647  0.565965 -0.736414
			-0.320403  0.486137 -0.813027
			-0.128105  0.331416 -0.934747
			-0.203125  0.414448 -0.887115
			-0.076522  0.149555 -0.985788
			-0.010968 -0.030837 -0.999464
			-0.122723 -0.176352 -0.976647
			-0.281183 -0.206608 -0.937150
			-0.444813 -0.220733 -0.867997
			 0.406498 -0.104942  0.907605
			 0.601736 -0.097453  0.792727
			 0.537165 -0.126253  0.833975
			 0.420526 -0.217831  0.880743
			 0.281237 -0.186327  0.941376
			 0.254750  0.069093  0.964535
			 0.171112  0.083381  0.981717
			 0.287882  0.114326  0.950817
			 0.413242  0.119124  0.902796
			 0.352393  0.145979  0.924397
			 0.396578  0.142508  0.906872
			 0.475223  0.182409  0.860749
			 0.546966  0.203372  0.812076
			 0.521273  0.182210  0.833711
			-0.141690  0.061971  0.987969
			 0.131629  0.098761  0.986367
			-0.410891 -0.030212  0.911184
			-0.355462 -0.002237  0.934688
			-0.314805  0.013147  0.949065
			-0.528232 -0.069443  0.846256
			-0.669702 -0.115609  0.733576
			-0.218311  0.035388  0.975237
			-0.768647 -0.192461  0.610034
			-0.918368 -0.370944 -0.137845
			-0.909005 -0.406783  0.090756
			-0.882533 -0.331692  0.333340
			-0.524075 -0.244095 -0.815943
			-0.557497 -0.219526 -0.800628
			-0.672046 -0.255615 -0.694993
			-0.884730 -0.386989 -0.259792
			-0.772191 -0.362981 -0.521504
			-0.694865 -0.355448 -0.625156
			 0.755679 -0.165402 -0.633712
			 0.752324 -0.169930 -0.636500
			 0.479135 -0.227066 -0.847863
			-0.488314 -0.206485 -0.847888
			 0.533232 -0.435496  0.725263
			 0.450748 -0.666586  0.593709
			 0.361653 -0.784273  0.504106
			 0.312532 -0.838840  0.445726
			 0.425619 -0.899884  0.095173
			 0.221513 -0.974854 -0.024334
			 0.184223 -0.956705 -0.225338
			 0.377348 -0.923146 -0.073559
			 0.303012 -0.943612  0.133342
			-0.032953 -0.836661 -0.546728
			-0.118289 -0.663130 -0.739098
			-0.418736 -0.041121 -0.907176
			-0.336302  0.028643 -0.941319
			-0.230257  0.228071 -0.946026
			-0.463676  0.086594 -0.881763
			-0.597884  0.201773 -0.775772
			-0.485862 -0.227999 -0.843774
			-0.457650 -0.369819 -0.808573
			-0.618406 -0.011205 -0.785779
			-0.412266 -0.443480 -0.795841
			-0.285614 -0.531018 -0.797775
			-0.366993 -0.506817 -0.780034
			 0.571921 -0.271842  0.773956
			 0.546092 -0.230124  0.805498
			-0.367049  0.444671 -0.817033
			-0.311874  0.535695 -0.784707
			-0.224604  0.455535 -0.861418
			-0.030565  0.291801 -0.955990
			 0.003778  0.072586 -0.997355
			-0.077437 -0.068456 -0.994644
			 0.054247 -0.157888 -0.985966
			 0.066127 -0.163870 -0.984263
			-0.196603 -0.211235 -0.957459
			-0.196866 -0.247311 -0.948726
			-0.218034 -0.246825 -0.944213
			-0.347641 -0.233565 -0.908071
			 0.293195 -0.344682  0.891757
			 0.120693 -0.146820  0.981772
			 0.163536 -0.259956  0.951672
			 0.090955  0.005879  0.995838
			 0.228856  0.171019  0.958320
			 0.482449  0.211965  0.849891
			 0.543789  0.196941  0.815787
			 0.252429  0.122259  0.959861
			 0.532345  0.202591  0.821928
			 0.318657  0.165524  0.933306
			 0.724627  0.264685  0.636285
			-0.104745  0.085846  0.990787
			 0.191145  0.142655  0.971140
			 0.104511  0.129655  0.986036
			-0.573372 -0.054427  0.817485
			-0.303099  0.007184  0.952932
			-0.238821  0.025191  0.970737
			-0.287639  0.012704  0.957655
			-0.410173 -0.018878  0.911812
			-0.587869 -0.094324  0.803438
			-0.201867  0.039989  0.978596
			-0.747289 -0.172122  0.641820
			-0.711099 -0.136829  0.689649
			-0.053365  0.083546  0.995074
			-0.888099 -0.266913  0.374217
			-0.922093 -0.385978  0.027673
			-0.942680 -0.330265  0.047754
			-0.258428 -0.247706 -0.933733
			-0.539027 -0.259272 -0.801391
			-0.411004 -0.272160 -0.870060
			-0.482322 -0.203859 -0.851943
			-0.548484 -0.303547 -0.779118
			-0.649821 -0.416963 -0.635511
			-0.538914 -0.382159 -0.750684
			-0.642090 -0.313729 -0.699496
			-0.899585 -0.355438 -0.253793
			-0.808563 -0.437142 -0.393870
			-0.906673 -0.338894 -0.251187
			 0.300726 -0.559650  0.772241
			 0.293678 -0.723410  0.624845
			 0.268740 -0.876051  0.400392
			 0.236490 -0.953579  0.186440
			 0.087380 -0.996150  0.007071
			 0.019302 -0.976541 -0.214467
			 0.285910 -0.832075  0.475297
			-0.151867 -0.902200 -0.403697
			-0.289754 -0.713634 -0.637785
			-0.558068  0.323812 -0.764006
			-0.606433 -0.000137 -0.795135
			-0.571333  0.462100 -0.678264
			-0.516070  0.391339 -0.761923
			-0.568126  0.455680 -0.685265
			-0.524931  0.181796 -0.831503
			-0.510422 -0.389198 -0.766808
			-0.420979 -0.020893 -0.906830
			-0.276798 -0.175674 -0.944734
			-0.419530 -0.418167 -0.805686
			-0.340681 -0.286956 -0.895317
			-0.412910 -0.528444 -0.741790
			-0.452088 -0.536227 -0.712795
			-0.405104 -0.578550 -0.707934
			-0.402248 -0.493810 -0.770940
			-0.458105 -0.547050 -0.700626
			-0.460455  0.422409 -0.780738
			-0.329033  0.307159 -0.892967
			-0.186130  0.342701 -0.920821
			-0.082216  0.166785 -0.982560
			-0.228343 -0.152723 -0.961527
			-0.200167  0.073543 -0.976998
			 0.210709 -0.129775 -0.968897
			-0.205947 -0.236097 -0.949655
			-0.263702 -0.221410 -0.938850
			-0.212274 -0.222129 -0.951629
			-0.078002 -0.208191 -0.974973
			-0.177867 -0.221002 -0.958917
			-0.232101 -0.230528 -0.944979
			-0.299581 -0.242371 -0.922772
			 0.171935 -0.364747  0.915095
			 0.200866 -0.561947  0.802414
			 0.121970 -0.278482  0.952665
			 0.091066 -0.180048  0.979433
			 0.221836  0.092536  0.970683
			 0.472228  0.209890  0.856124
			 0.309333  0.195552  0.930630
			 0.479734  0.277209  0.832472
			 0.665820  0.285142  0.689476
			 0.637876  0.253257  0.727307
			 0.526850  0.241194  0.815018
			 0.188534  0.151235  0.970352
			 0.203281  0.155114  0.966756
			 0.422360  0.213670  0.880884
			 0.753044  0.279976  0.595431
			 0.794382  0.327282  0.511706
			 0.844774  0.277437  0.457587
			 0.836566  0.265092  0.479461
			 0.791136  0.265247  0.551134
			 0.865028  0.333989  0.374404
			-0.142641  0.080642  0.986484
			-0.134569  0.062960  0.988902
			-0.076868  0.079564  0.993862
			-0.051802  0.126605  0.990600
			 0.104499  0.147629  0.983507
			-0.139272  0.094824  0.985704
			-0.184436  0.071037  0.980274
			-0.354148 -0.001695  0.935188
			-0.805656 -0.159436  0.570524
			-0.477751 -0.065454  0.876054
			-0.627379 -0.102043  0.771999
			-0.694584 -0.141040  0.705451
			-0.862480 -0.245381  0.442624
			-0.789010 -0.178088  0.588004
			-0.849845 -0.236925  0.470775
			-0.824339 -0.237342  0.513940
			-0.043942  0.067816  0.996730
			-0.934883 -0.354443  0.019078
			-0.464763 -0.279224 -0.840256
			-0.403365 -0.283784 -0.869921
			-0.293389 -0.483838 -0.824514
			-0.661640 -0.557566 -0.501351
			-0.557502 -0.467518 -0.686017
			-0.436964 -0.557084 -0.706201
			-0.323485 -0.438968 -0.838251
			-0.857994 -0.469709 -0.207894
			 0.307200 -0.699333  0.645416
			 0.366458 -0.827494  0.425396
			 0.370063 -0.885020  0.282477
			 0.180045 -0.979928  0.085586
			 0.338666 -0.917807  0.207208
			 0.226598 -0.972238  0.058362
			 0.144689 -0.979381 -0.140987
			-0.073674 -0.958727 -0.274616
			-0.135185 -0.863542 -0.485818
			-0.262182 -0.778417 -0.570375
			-0.110263 -0.869633 -0.481228
			-0.167853 -0.721031 -0.672264
			-0.390130  0.333664 -0.858177
			-0.575905  0.501186 -0.645869
			-0.586411  0.329889 -0.739795
			-0.492980  0.435601 -0.753142
			-0.373345  0.180427 -0.909978
			-0.151318  0.037387 -0.987778
			-0.205887 -0.338105 -0.918311
			-0.056172 -0.136406 -0.989059
			-0.297828 -0.498240 -0.814282
			-0.351419 -0.564381 -0.746980
			-0.188062 -0.576943 -0.794839
			-0.448689  0.249943 -0.858025
			-0.529173  0.140533 -0.836795
			-0.387780  0.128409 -0.912764
			-0.558841  0.318510 -0.765669
			-0.306674  0.091161 -0.947439
			-0.346265 -0.133395 -0.928605
			-0.168411 -0.185285 -0.968146
			-0.353559 -0.176688 -0.918574
			-0.413161 -0.132746 -0.900931
			-0.239993 -0.149128 -0.959252
			-0.075909 -0.179641 -0.980799
			-0.089709 -0.152720 -0.984190
			 0.217846 -0.119642 -0.968622
			 0.042245 -0.147941 -0.988094
			-0.091501 -0.159024 -0.983025
			-0.116375 -0.194626 -0.973950
			-0.083905 -0.196337 -0.976940
			 0.348158 -0.454929  0.819649
			 0.182062 -0.344926  0.920804
			 0.290425 -0.648223  0.703889
			 0.254464 -0.118697  0.959770
			 0.330312 -0.166849  0.929007
			 0.415291  0.126676  0.900825
			 0.474389  0.251304  0.843683
			 0.592472  0.105936  0.798596
			 0.699969  0.208925  0.682930
			 0.739178  0.277359  0.613748
			 0.733630  0.332754  0.592505
			 0.776627  0.321847  0.541539
			 0.736479  0.272484  0.619153
			 0.611391  0.270108  0.743803
			 0.282298  0.174229  0.943373
			 0.565127  0.277924  0.776782
			 0.570653  0.265777  0.776993
			 0.676926  0.261514  0.688027
			 0.495007  0.251119  0.831810
			 0.827969  0.326090  0.456215
			 0.860917  0.273346  0.429073
			 0.925654  0.275648  0.259197
			 0.830920  0.284959  0.477881
			 0.851664  0.343253  0.396039
			 0.847911  0.354882  0.393835
			 0.767937  0.359364  0.530217
			 0.857174  0.346939  0.380638
			 0.008806  0.108559  0.994051
			 0.218446  0.178058  0.959467
			 0.010468  0.125447  0.992045
			-0.209013  0.060288  0.976053
			-0.092374  0.095941  0.991092
			-0.393197 -0.007755  0.919422
			-0.941393 -0.312281  0.127512
			-0.912575 -0.277684  0.300163
			-0.860358 -0.187584  0.473916
			-0.772407 -0.118650  0.623947
			-0.526800 -0.065834  0.847436
			-0.714813 -0.127134  0.687662
			-0.712473 -0.120838  0.691216
			-0.767082 -0.139088  0.626291
			-0.909063 -0.339342  0.241768
			-0.920432 -0.372884  0.117315
			-0.905245 -0.345954  0.246674
			-0.299365 -0.263967 -0.916898
			-0.431876 -0.313167 -0.845819
			-0.274849 -0.223727 -0.935096
			-0.386018 -0.262791 -0.884268
			-0.522521 -0.307380 -0.795292
			-0.458458 -0.321682 -0.828455
			-0.253703 -0.560972 -0.788001
			-0.100490 -0.485204 -0.868607
			-0.524377 -0.640393 -0.561182
			-0.716688 -0.506875 -0.478994
			-0.817068 -0.483700 -0.313742
			-0.594681 -0.517047 -0.615643
			-0.882024 -0.461190 -0.096633
			 0.352521 -0.780230  0.516691
			 0.487823 -0.852673  0.187024
			 0.424981 -0.804733  0.414482
			 0.468805 -0.882110 -0.045875
			 0.518899 -0.853205  0.052774
			 0.422369 -0.854028 -0.303712
			 0.075684 -0.937326 -0.340135
			-0.141233 -0.831266 -0.537634
			 0.019290 -0.839251 -0.543402
			 0.129112 -0.862700 -0.488956
			 0.187156 -0.748228 -0.636496
			 0.044159 -0.660721 -0.749332
			-0.208883  0.139012 -0.968010
			-0.290881  0.372200 -0.881394
			-0.262741  0.203739 -0.943111
			-0.169831  0.201967 -0.964555
			-0.566123  0.394765 -0.723647
			-0.564243  0.200936 -0.800784
			-0.521104  0.022503 -0.853196
			-0.469436  0.449109 -0.760218
			-0.485075  0.142477 -0.862788
			-0.504654  0.302528 -0.808580
			 0.237118  0.009584 -0.971434
			 0.019604  0.084451 -0.996235
			 0.233045  0.128287 -0.963967
			-0.078901 -0.424734 -0.901873
			 0.058032 -0.273469 -0.960129
			 0.377239 -0.129719 -0.916986
			 0.057975 -0.485323 -0.872411
			-0.450212  0.054999 -0.891226
			-0.178360 -0.166892 -0.969708
			-0.359532 -0.060233 -0.931187
			-0.256210 -0.102886 -0.961130
			-0.097506 -0.101957 -0.989999
			-0.131010 -0.156321 -0.978979
			 0.013825 -0.039472 -0.999125
			 0.027944 -0.045545 -0.998571
			 0.175700 -0.080539 -0.981144
			 0.110918 -0.042505 -0.992920
			 0.078336 -0.094166 -0.992470
			 0.084027 -0.109445 -0.990435
			 0.067651 -0.153169 -0.985882
			 0.023132 -0.122503 -0.992198
			-0.117255 -0.214637 -0.969630
			-0.056330 -0.186780 -0.980785
			 0.060060 -0.162455 -0.984886
			 0.385091 -0.638835  0.666029
			 0.479413 -0.584579  0.654546
			 0.502398 -0.238589  0.831067
			 0.625631 -0.335751  0.704171
			 0.317253 -0.310704  0.895999
			 0.450115  0.020418  0.892737
			 0.500098 -0.110840  0.858846
			 0.666785  0.016950  0.745058
			 0.793811  0.206135  0.572165
			 0.908348  0.245425  0.338630
			 0.841961  0.292665  0.453264
			 0.862458  0.259141  0.434756
			 0.794779  0.322998  0.513808
			 0.840800  0.324212  0.433524
			 0.803564  0.302373  0.512694
			 0.713241  0.308308  0.629470
			 0.747125  0.293691  0.596280
			 0.661584  0.284952  0.693620
			 0.733373  0.294647  0.612656
			 0.780366  0.313500  0.541061
			 0.734813  0.290047  0.613125
			 0.445103  0.242723  0.861956
			 0.571079  0.274683  0.773575
			 0.949049  0.254174  0.186282
			 0.877801  0.290590  0.380818
			 0.914332  0.260930  0.309696
			 0.950475  0.300263  0.080250
			 0.939096  0.267871  0.215277
			 0.900698  0.296856  0.317205
			 0.294714  0.203414  0.933684
			 0.066665  0.127840  0.989552
			-0.269941  0.037546  0.962144
			-0.112438  0.085303  0.989991
			-0.573721 -0.091574  0.813915
			-0.593737 -0.081921  0.800478
			-0.488028 -0.039280  0.871944
			-0.380070 -0.006654  0.924934
			-0.922279 -0.382604  0.054917
			-0.909223 -0.414944 -0.033693
			-0.917986 -0.379912 -0.113879
			-0.929388 -0.358223 -0.088965
			-0.939592 -0.280248  0.196541
			-0.763585 -0.207218  0.611554
			-0.845455 -0.204747  0.493239
			-0.734506 -0.167310  0.657654
			-0.831652 -0.476460 -0.285203
			-0.224883 -0.296347 -0.928227
			-0.461604 -0.297067 -0.835866
			-0.327229 -0.249565 -0.911394
			-0.444551 -0.287319 -0.848423
			-0.582217 -0.309330 -0.751890
			-0.533517 -0.331404 -0.778159
			-0.301054 -0.272473 -0.913852
			-0.164807 -0.366314 -0.915780
			-0.484371 -0.476669 -0.733602
			-0.779657 -0.488816 -0.391400
			 0.487612 -0.595229  0.638699
			 0.733823 -0.678201 -0.039343
			 0.713187 -0.695331  0.088764
			 0.690219 -0.661814  0.292575
			 0.617239 -0.591244  0.519083
			 0.688584 -0.708556 -0.154271
			 0.705710 -0.704686 -0.073428
			 0.689923 -0.683010 -0.239800
			 0.465730 -0.829070 -0.309418
			 0.463932 -0.772567 -0.433484
			 0.492391 -0.698214 -0.519662
			 0.412013 -0.654042 -0.634409
			 0.220313 -0.718362 -0.659862
			 0.232773 -0.607456 -0.759482
			-0.098322  0.116035 -0.988367
			-0.137813  0.453124 -0.880731
			-0.013155  0.307640 -0.951412
			-0.007282  0.153143 -0.988177
			-0.394975  0.476105 -0.785696
			-0.394239  0.204173 -0.896041
			-0.256633  0.054760 -0.964956
			-0.316641  0.324694 -0.891242
			-0.384771  0.391912 -0.835677
			 0.377493 -0.086524 -0.921961
			 0.509709  0.114912 -0.852638
			 0.615069 -0.005083 -0.788457
			 0.265266  0.103762 -0.958576
			 0.590303  0.197227 -0.782715
			 0.122834 -0.354317 -0.927023
			 0.772173 -0.167085 -0.613051
			 0.898390 -0.057930 -0.435361
			 0.225945 -0.457044 -0.860267
			-0.178751 -0.025711 -0.983558
			 0.104216 -0.006139 -0.994536
			 0.154923  0.023573 -0.987645
			 0.955003 -0.005822 -0.296538
			 0.954847 -0.001336 -0.297095
			 0.352109 -0.026199 -0.935592
			 0.220570 -0.010140 -0.975318
			 0.235273 -0.111312 -0.965534
			 0.212275 -0.125908 -0.969065
			 0.146242 -0.067913 -0.986915
			 0.104334 -0.108529 -0.988603
			-0.044386 -0.197140 -0.979370
			 0.258974 -0.115036 -0.959009
			 0.058112 -0.153203 -0.986484
			 0.291491 -0.115914 -0.949525
			 0.026079 -0.168550 -0.985348
			-0.033356 -0.202842 -0.978643
			-0.082859 -0.199214 -0.976447
			-0.079086 -0.178569 -0.980744
			-0.153640 -0.228474 -0.961350
			-0.118359 -0.198176 -0.972994
			 0.685441 -0.085794  0.723056
			 0.715425 -0.409440  0.566150
			 0.774957 -0.258972  0.576520
			 0.800894 -0.063140  0.595468
			 0.765852  0.092770  0.636290
			 0.854010  0.197106  0.481473
			 0.909813  0.280111  0.306232
			 0.901069  0.264530  0.343654
			 0.967664  0.195992  0.158785
			 0.955224  0.271658  0.117261
			 0.890660  0.295578  0.345482
			 0.872307  0.386448  0.299563