<?xml version="1.0"?>
<VTKFile type="PolyData" version="0.1" byte_order="LittleEndian" compressor="vtkZLibDataCompressor">
	<PolyData>
		<Piece NumberOfPoints="1288" NumberOfVerts="0" NumberOfLines="0" NumberOfStrips="0" NumberOfPolys="2572">
		<PointData Normals="Normals">
		<DataArray type="Float32" Name="Normals" NumberOfComponents="3" format="ascii">
			 0.322439 -0.925333 -0.199480
			 0.154581 -0.939198 -0.306612
			 0.248543 -0.864493 -0.436896
			 0.333063 -0.831236 -0.445103
			-0.047592 -0.998502 -0.026989
			 0.464740 -0.885021  0.027457
			 0.206419 -0.978197  0.022845
			 0.476482 -0.868246 -0.138254
			 0.064502 -0.812008 -0.580071
			-0.046030 -0.900178 -0.433082
			-0.063492 -0.972078 -0.225904
			 0.151200 -0.713216 -0.684443
			 0.215443 -0.657869 -0.721660
			 0.488631 -0.801952 -0.343674
			 0.372350 -0.673995 -0.638033
			-0.225540 -0.974212  0.006611
			-0.098190 -0.938366  0.331402
			-0.236624 -0.925167  0.296776
			 0.316021 -0.867411  0.384354
			 0.660102 -0.751072 -0.012549
			 0.583253 -0.781796  0.220476
			 0.640402 -0.731642 -0.233633
			-0.192144 -0.799070 -0.569709
			-0.119735 -0.693110 -0.710818
			 0.037181 -0.609891 -0.791612
			-0.156686 -0.952505 -0.261119
			-0.298218 -0.910479 -0.286520
			 0.119001 -0.520135 -0.845753
			 0.090337 -0.548396 -0.831325
			 0.260972 -0.570987 -0.778375
			 0.564579 -0.678617 -0.469818
			 0.525237 -0.566788 -0.634727
			 0.308389 -0.467390 -0.828519
			-0.320161 -0.945281 -0.062770
			-0.305929 -0.904573  0.296911
			 0.057747 -0.873295  0.483757
			-0.109184 -0.866522  0.487052
			-0.166178 -0.705288  0.689169
			-0.241386 -0.817562  0.522805
			 0.511713 -0.734104  0.446364
			 0.406150 -0.655825  0.636346
			 0.254745 -0.787667  0.560969
			 0.589580 -0.699219  0.404337
			 0.616995 -0.765630  0.182010
			 0.690260 -0.722518 -0.038836
			 0.675284 -0.635379 -0.374547
			 0.708526 -0.627793 -0.322284
			 0.548670 -0.629924  0.549688
			-0.313860 -0.744030 -0.589840
			-0.342401 -0.797076 -0.497425
			-0.380600 -0.694866 -0.610168
			-0.219761 -0.597756 -0.770969
			-0.024195 -0.537841 -0.842699
			 0.077166 -0.421928 -0.903339
			-0.388421 -0.903957  0.178861
			-0.527053 -0.849762 -0.010965
			-0.520574 -0.832912 -0.187779
			 0.152935 -0.404801 -0.901525
			 0.062882 -0.391734 -0.917927
			 0.735582 -0.485649 -0.472298
			 0.652169 -0.431206 -0.623487
			 0.447978 -0.405277 -0.796910
			 0.171784 -0.338696 -0.925081
			 0.314338 -0.278438 -0.907559
			-0.356937 -0.876508  0.323002
			-0.292630 -0.719918  0.629354
			-0.287787 -0.793207  0.536658
			 0.081236 -0.789315  0.608590
			-0.025188 -0.554656  0.831698
			-0.231225 -0.605127  0.761811
			-0.099637 -0.355057  0.929520
			-0.140038 -0.417417  0.897860
			 0.426497 -0.499753  0.753889
			 0.157687 -0.620991  0.767792
			 0.218124 -0.411482  0.884932
			 0.494841 -0.535335  0.684507
			 0.446352 -0.599914  0.663983
			 0.587855 -0.529768  0.611370
			 0.748795 -0.647094  0.143444
			 0.871120 -0.471086 -0.138668
			-0.516896 -0.738210 -0.433433
			-0.616203 -0.713506 -0.333471
			-0.505823 -0.698839 -0.505734
			-0.386179 -0.598545 -0.701862
			-0.290105 -0.480295 -0.827741
			-0.132867 -0.443948 -0.886147
			 0.015684 -0.391181 -0.920180
			 0.020897 -0.231351 -0.972646
			 0.079627 -0.227208 -0.970585
			 0.746257 -0.663581  0.052544
			-0.406887 -0.716541  0.566579
			-0.485933 -0.662649  0.569882
			-0.288832 -0.900042  0.326343
			 0.950609 -0.302717  0.068598
			-0.392876 -0.919453 -0.015959
			-0.679017 -0.692975 -0.242328
			-0.605477 -0.794180 -0.051727
			 0.837415 -0.442115 -0.321357
			 0.820236 -0.344550 -0.456616
			 0.550463 -0.331926 -0.766039
			 0.382929 -0.132371 -0.914245
			 0.144083 -0.213414 -0.966279
			 0.257602 -0.171163 -0.950970
			-0.291538 -0.671831  0.680917
			-0.212870 -0.580166  0.786190
			-0.206448 -0.522913  0.827008
			 0.057488 -0.392818  0.917818
			 0.013717 -0.243887  0.969707
			-0.027397 -0.149370  0.988402
			-0.110634 -0.286517  0.951666
			 0.370638 -0.420785  0.827990
			 0.179604 -0.301169  0.936504
			 0.076948 -0.233404  0.969330
			 0.455739 -0.354316  0.816555
			 0.585493 -0.246073  0.772429
			 0.780857 -0.332525  0.528856
			 0.702623 -0.224912  0.675082
			 0.910362 -0.337712  0.239148
			 0.932024 -0.327929  0.154254
			-0.752706 -0.639734 -0.155480
			-0.732184 -0.679665 -0.044296
			-0.644246 -0.649280 -0.404206
			-0.470490 -0.561227 -0.680928
			-0.139857 -0.263845 -0.954372
			-0.439845 -0.422418 -0.792527
			-0.352264 -0.279631 -0.893150
			 0.039597 -0.127618 -0.991033
			-0.003937 -0.100694 -0.994910
			-0.016299 -0.074845 -0.997062
			-0.106508 -0.111490 -0.988041
			 0.242015 -0.969332  0.042718
			-0.310809 -0.486173  0.816721
			-0.343009 -0.496821  0.797192
			-0.368020 -0.363162  0.855964
			-0.510048 -0.424945  0.747845
			-0.630139 -0.631604  0.451665
			-0.555011 -0.802573  0.218720
			-0.712397 -0.700594 -0.040720
			 0.934705 -0.333306 -0.123427
			 0.943717 -0.158691 -0.290199
			 0.757280 -0.297164 -0.581568
			 0.900432 -0.228496 -0.370151
			 0.563458 -0.254787 -0.785874
			 0.225585 -0.118761 -0.966958
			 0.222152  0.008647 -0.974974
			 0.680964 -0.207895 -0.702187
			 0.525413  0.023830 -0.850514
			 0.643874 -0.082156 -0.760708
			 0.248257  0.057344 -0.966995
			 0.000347 -0.128245 -0.991742
			-0.198360 -0.341621  0.918667
			-0.028680 -0.098992  0.994675
			 0.170461 -0.223042  0.959789
			-0.005848  0.093520  0.995600
			-0.054650  0.051231  0.997190
			 0.031421 -0.055242  0.997978
			-0.123313 -0.190419  0.973927
			 0.365376 -0.210758  0.906687
			 0.426511 -0.067715  0.901944
			 0.653847 -0.055417  0.754594
			 0.837761 -0.149070  0.525294
			 0.856131 -0.047474  0.514574
			 0.920910 -0.169936  0.350781
			-0.835962 -0.547501 -0.037548
			-0.779828 -0.519946 -0.348604
			-0.808910 -0.584082  0.067175
			-0.822477 -0.506459  0.258902
			-0.614469 -0.451694 -0.646838
			-0.191110 -0.160771 -0.968313
			-0.481811 -0.342349 -0.806632
			-0.494278 -0.216849 -0.841823
			-0.316862 -0.078128 -0.945248
			 0.060018  0.040964 -0.997356
			-0.064432 -0.074116 -0.995166
			-0.141873  0.052240 -0.988506
			-0.266071  0.070962 -0.961338
			-0.276434 -0.272284  0.921654
			-0.446258 -0.247611  0.859966
			-0.617551 -0.369792  0.694179
			-0.727664 -0.582965  0.361466
			-0.845033 -0.511070  0.157245
			-0.849205 -0.520133 -0.091172
			 0.994103 -0.107247 -0.016027
			 0.957869 -0.250940  0.139697
			 0.973461 -0.104518 -0.203590
			 0.998130  0.048013  0.037840
			 0.987900 -0.036998 -0.150617
			 0.828038 -0.240350 -0.506543
			 0.924450 -0.205723 -0.321045
			 0.190589 -0.028113 -0.981267
			 0.090851 -0.037126 -0.995172
			 0.029099  0.146432 -0.988793
			 0.125821  0.050154 -0.990784
			 0.794725 -0.165129 -0.584075
			 0.790434  0.068374 -0.608719
			 0.798057  0.102191 -0.593853
			 0.373269  0.036701 -0.926997
			 0.490398  0.163722 -0.855982
			 0.749715  0.135815 -0.647674
			 0.874289 -0.060529 -0.481617
			 0.232600  0.194362 -0.952954
			 0.049846  0.173195 -0.983626
			-0.165262  0.024471 -0.985946
			-0.103957 -0.134718  0.985416
			 0.237628 -0.044773  0.970324
			 0.041121  0.221238  0.974352
			-0.077199  0.009902  0.996966
			 0.160359  0.188077  0.968975
			 0.144785  0.139296  0.979609
			 0.039222  0.104444  0.993757
			 0.035696  0.111508  0.993122
			 0.169091  0.117939  0.978519
			 0.416344  0.128352  0.900102
			 0.721034  0.055158  0.690701
			 0.589209  0.128232  0.797740
			 0.652158  0.183396  0.735565
			 0.777283  0.083526  0.623582
			 0.806295  0.055601  0.588895
			 0.938037 -0.019365  0.345994
			-0.908401 -0.387945 -0.155903
			-0.944271 -0.283081  0.167982
			-0.874039 -0.395294  0.282487
			-0.634156 -0.416104 -0.651693
			-0.890024 -0.455345 -0.022770
			-0.800846 -0.349205 -0.486519
			-0.496039 -0.349469 -0.794869
			-0.625417 -0.272770 -0.731061
			-0.655070 -0.182445 -0.733210
			-0.530855 -0.070798 -0.844500
			-0.267349  0.020538 -0.963381
			-0.074347  0.104980 -0.991691
			 0.090173  0.144656 -0.985365
			 0.044418 -0.046809 -0.997916
			-0.112021  0.161099 -0.980560
			 0.085048  0.169520 -0.981850
			-0.302996  0.109540 -0.946676
			-0.160143  0.112952 -0.980610
			-0.237333  0.016358 -0.971291
			-0.267169 -0.108603  0.957510
			-0.439676 -0.156967  0.884334
			-0.603255 -0.301962  0.738175
			-0.782183 -0.405875  0.472711
			-0.769905 -0.220464  0.598868
			-0.924348 -0.302648  0.232348
			-0.938793 -0.344277 -0.011888
			 0.970002  0.111795  0.215863
			 0.873907  0.261095  0.410018
			 0.818253  0.230699  0.526536
			 0.923481  0.173323  0.342260
			 0.982514  0.176675  0.058757
			 0.910387 -0.160655 -0.381294
			 0.987596 -0.058656 -0.145647
			 0.992300  0.109793  0.057328
			 0.007352  0.088318 -0.996065
			-0.199538  0.050242 -0.978601
			 0.020185  0.114680 -0.993197
			-0.095672  0.012193 -0.995338
			 0.951181  0.124353 -0.282474
			 0.912256  0.145111 -0.383055
			 0.923331  0.180961 -0.338693
			 0.687563  0.276011 -0.671621
			 0.374458  0.474845 -0.796432
			 0.848398  0.304139 -0.433268
			 0.974380  0.024764 -0.223540
			 0.236834  0.368198 -0.899077
			 0.186922  0.595350 -0.781421
			 0.261385  0.203934 -0.943445
			 0.202263  0.274987  0.939932
			 0.135659  0.301285  0.943835
			-0.321364  0.082397  0.943364
			-0.086636  0.151170  0.984704
			-0.033587  0.076263  0.996522
			 0.156540  0.305022  0.939392
			 0.318436  0.260147  0.911549
			 0.273813  0.100697  0.956497
			-0.064628  0.052644  0.996520
			 0.003623  0.075915  0.997108
			-0.064462  0.092805  0.993595
			 0.058636  0.120584  0.990970
			 0.010689  0.136873  0.990531
			 0.462500  0.236016  0.854628
			 0.641190  0.198766  0.741193
			 0.427753  0.337954  0.838341
			 0.786766  0.063115  0.614016
			 0.904138  0.024577  0.426532
			-0.906532 -0.151657  0.393955
			-0.875416 -0.104996  0.471829
			-0.903525  0.014590  0.428287
			-0.927073 -0.192827  0.321486
			-0.920673 -0.290676  0.260518
			-0.908120 -0.340759 -0.243313
			-0.962291 -0.270884  0.024837
			-0.952714 -0.197663 -0.230794
			-0.827721 -0.201000 -0.523906
			-0.872839 -0.109670 -0.475525
			-0.757921 -0.057784 -0.649783
			-0.473600  0.078044 -0.877275
			-0.745759  0.088342 -0.660333
			-0.165356  0.255560 -0.952547
			-0.236653  0.127054 -0.963251
			 0.117257  0.216933 -0.969118
			-0.250429  0.214039 -0.944178
			 0.056792  0.254227 -0.965476
			-0.094545  0.064848 -0.993406
			 0.111788  0.078683 -0.990612
			 0.155674  0.071323 -0.985230
			-0.027556 -0.007244 -0.999594
			-0.025451 -0.123802 -0.991981
			-0.657897 -0.151010  0.737813
			-0.555715  0.087333  0.826773
			-0.743273 -0.206452  0.636336
			-0.731582 -0.015140  0.681586
			-0.815203 -0.067940  0.575177
			 0.881248  0.117619  0.457785
			 0.739066  0.190514  0.646131
			 0.595421  0.309975  0.741208
			 0.497351  0.351015  0.793367
			 0.703516  0.321292  0.633906
			 0.880652  0.291678  0.373330
			 0.884228  0.310343  0.349039
			 0.991949  0.075317  0.101804
			 0.161712 -0.033234 -0.986278
			 0.051317 -0.150376 -0.987296
			 0.978134  0.184159  0.096642
			 0.972725  0.162572 -0.165456
			 0.967766  0.197790  0.155908
			 0.965861  0.229214  0.120717
			 0.910413  0.339037 -0.237068
			 0.652192  0.353913 -0.670366
			 0.369588  0.610958 -0.700096
			 0.724554  0.452163 -0.520164
			 0.566282  0.634161 -0.526464
			 0.461364  0.525389 -0.714920
			 0.297804  0.357104 -0.885319
			 0.411710 -0.015121 -0.911189
			 0.533019  0.107303 -0.839271
			 0.580695  0.284446 -0.762814
			 0.236753  0.368580  0.898942
			-0.378645  0.257247  0.889074
			-0.141412  0.169726  0.975293
			-0.217823  0.063099  0.973947
			-0.222460  0.014574  0.974833
			 0.447012  0.322109  0.834521
			 0.527709  0.196533  0.826376
			 0.109140  0.062842  0.992038
			 0.424563  0.126892  0.896463
			 0.178959  0.105477  0.978186
			-0.221188  0.062322  0.973238
			-0.162235  0.084383  0.983138
			-0.238809  0.029691  0.970613
			 0.326655  0.399815  0.856414
			-0.895184 -0.007218  0.445639
			-0.844186  0.139414  0.517604
			-0.853038  0.083241  0.515168
			-0.747806  0.001686  0.663915
			-0.705292  0.101931  0.701551
			-0.721081  0.252066  0.645372
			-0.968495 -0.122802  0.216651
			-0.988163 -0.147340  0.042728
			-0.972970 -0.119402 -0.197668
			-0.928433  0.033991 -0.369942
			-0.988904  0.003200 -0.148518
			-0.528793  0.305460 -0.791879
			-0.287534  0.281218 -0.915555
			-0.823613  0.219756 -0.522847
			-0.951566  0.171216 -0.255357
			-0.291745  0.313071 -0.903810
			-0.330610  0.215822 -0.918759
			-0.208387  0.394774 -0.894835
			 0.103898  0.734751 -0.670333
			-0.387356  0.349525 -0.853105
			-0.095189  0.343829 -0.934195
			-0.352345 -0.150763 -0.923647
			-0.077916 -0.219140 -0.972577
			-0.019126 -0.213733 -0.976705
			-0.184603 -0.229780 -0.955575
			-0.615337  0.109854  0.780572
			 0.376805  0.371792  0.848404
			 0.295263  0.387227  0.873427
			 0.669345  0.385289  0.635240
			 0.623669  0.404592  0.668836
			 0.535055  0.440330  0.720989
			 0.890358  0.245617  0.383321
			 0.710943  0.315360  0.628576
			 0.170121 -0.141179 -0.975258
			 0.036575 -0.190475 -0.981011
			 0.846344  0.241602  0.474690
			 0.823685  0.220720  0.522327
			 0.916867  0.365208  0.161177
			 0.758598  0.319472  0.567862
			 0.886207  0.462783 -0.021647
			 0.821069  0.470389 -0.323390
			 0.814108  0.578079 -0.055252
			 0.735986  0.624363  0.261714
			 0.645981  0.700035 -0.304400
			 0.662947  0.601764 -0.445402
			 0.625402  0.050239 -0.778684
			 0.361179 -0.134720 -0.922714
			 0.657511 -0.074371 -0.749765
			 0.829440  0.312418 -0.463060
			 0.747822  0.090197 -0.657744
			 0.336446  0.368466  0.866624
			-0.522225  0.226539  0.822168
			-0.517309  0.233495  0.823329
			-0.355699  0.118905  0.927006
			-0.398198  0.026950  0.916904
			 0.540106  0.268628  0.797574
			 0.655534  0.190085  0.730851
			-0.006722  0.108389  0.994086
			 0.223632  0.119983  0.967260
			 0.278616  0.134552  0.950931
			 0.530994  0.120129  0.838817
			 0.829696  0.084031  0.551855
			 0.686784  0.075672  0.722912
			-0.377092  0.029931  0.925692
			-0.389759  0.029811  0.920434
			-0.081944  0.093380  0.992253
			-0.285964  0.025568  0.957899
			-0.274796  0.071800  0.958818
			-0.052250  0.117122  0.991742
			-0.420640 -0.016090  0.907085
			-0.984073 -0.044666  0.172063
			-0.808427  0.151048  0.568886
			-0.852653  0.120548  0.508381
			-0.744263  0.241727  0.622607
			-0.538967  0.284370  0.792874
			-0.992422  0.122712 -0.006409
			-0.987143  0.076631  0.140271
			-0.419625  0.623791 -0.659393
			-0.783122  0.392794 -0.482112
			-0.898114  0.123931 -0.421940
			-0.977394  0.181719  0.108068
			-0.938033  0.273756  0.212488
			-0.954604  0.297241 -0.019439
			-0.566963  0.166519 -0.806737
			-0.356565  0.399205 -0.844687
			-0.492012 -0.032098 -0.869997
			-0.400654 -0.254517 -0.880169
			-0.606013 -0.257688 -0.752559
			-0.513835 -0.170598 -0.840756
			-0.151062 -0.283862 -0.946891
			-0.180562 -0.247472 -0.951922
			 0.008627 -0.250814 -0.967997
			-0.120303 -0.208793 -0.970532
			 0.374225  0.336585  0.864099
			 0.554609  0.340168  0.759405
			 0.666662  0.281751  0.690057
			 0.680500  0.323032  0.657700
			 0.132718 -0.178999 -0.974857
			 0.776880  0.492716  0.392031
			 0.625771  0.449405  0.637531
			 0.729109  0.679463 -0.082036
			 0.800323  0.537778  0.265100
			 0.683042  0.437275  0.585017
			 0.819901  0.554245 -0.143440
			 0.173365 -0.211218 -0.961942
			 0.257540 -0.191750 -0.947051
			 0.424937 -0.193110 -0.884385
			 0.773346 -0.070398 -0.630063
			 0.569228 -0.232938 -0.788492
			 0.802998 -0.148038 -0.577303
			 0.956755  0.260916 -0.128615
			 0.943146  0.174605 -0.282822
			 0.915196  0.374540 -0.148781
			 0.880869  0.035997 -0.471989
			-0.738759  0.087913  0.668211
			-0.566920  0.070003  0.820793
			-0.727947  0.022893  0.685251
			-0.633270 -0.033114  0.773223
			 0.744317  0.192084  0.639607
			 0.198047  0.162813  0.966576
			 0.047118  0.160424  0.985923
			 0.823511  0.060332  0.564083
			 0.394441  0.160592  0.904780
			 0.584080  0.147477  0.798186
			 0.179490  0.129300  0.975226
			-0.614121 -0.068299  0.786251
			-0.507894  0.007557  0.861387
			-0.619751 -0.054883  0.782877
			-0.272268  0.015564  0.962095
			-0.074965  0.082405  0.993776
			-0.499077 -0.024657  0.866207
			 0.171565  0.127402  0.976900
			-0.711530  0.249011  0.657054
			-0.688059  0.290509  0.664965
			-0.905717  0.210171  0.368110
			-0.784160  0.344224  0.516337
			-0.859758  0.129588  0.493988
			-0.676338  0.656004 -0.335001
			-0.593467  0.513007 -0.620178
			-0.614346  0.763091 -0.200678
			-0.776327  0.613820  0.143323
			-0.763838  0.372207  0.527270
			-0.726735  0.468979  0.501911
			-0.736402  0.302793 -0.605003
			-0.644720 -0.063385 -0.761786
			-0.828104 -0.046904 -0.558609
			-0.536633 -0.319594 -0.780951
			-0.248939 -0.244595 -0.937125
			-0.420298 -0.206213 -0.883643
			-0.634900 -0.274784 -0.722078
			-0.607487 -0.285203 -0.741363
			-0.086220 -0.314205 -0.945432
			-0.262196 -0.276663 -0.924506
			-0.347837 -0.300459 -0.888107
			-0.305657 -0.351842 -0.884749
			-0.074760 -0.209257 -0.974999
			 0.172639 -0.263867 -0.948984
			 0.781947  0.342122  0.521067
			 0.911764  0.410633  0.008135
			 0.894317  0.328244  0.304059
			 0.314077 -0.260436 -0.912978
			 0.908828 -0.097924 -0.405515
			 0.577147 -0.282378 -0.766267
			 0.739449 -0.296598 -0.604355
			 0.893003 -0.220261 -0.392469
			 0.965723  0.241010  0.096399
			 0.977512  0.067208 -0.199884
			 0.983062  0.163729  0.082350
			-0.870945 -0.009950  0.491281
			-0.805151 -0.072718  0.588595
			 0.658610  0.148909  0.737604
			 0.843272  0.207919  0.495643
			 0.402319  0.140101  0.904716
			-0.710548 -0.118798  0.693548
			-0.854658 -0.185163  0.485050
			-0.689337 -0.065617  0.721464
			-0.117129  0.062913  0.991122
			-0.337301  0.000273  0.941397
			 0.037920  0.111228  0.993071
			-0.731358 -0.123536  0.670712
			-0.504604 -0.043970  0.862231
			 0.336012  0.151704  0.929560
			 0.202897  0.135218  0.969819
			 0.044191  0.101242  0.993880
			-0.637367  0.412896  0.650599
			-0.908021  0.244274  0.340336
			-0.757169  0.599712  0.258921
			-0.910337  0.378762  0.166811
			-0.899904 -0.020201  0.435621
			-0.970093  0.055008  0.236420
			-0.895986  0.345547 -0.278938
			-0.903246 -0.088905 -0.419813
			-0.911448 -0.177118 -0.371337
			-0.951829  0.110522 -0.286017
			-0.917322 -0.251002 -0.309061
			-0.421827 -0.379355 -0.823500
			-0.626299 -0.397138 -0.670844
			-0.709834 -0.408987 -0.573467
			-0.806329 -0.407367 -0.428819
			-0.231714 -0.322237 -0.917863
			-0.061799 -0.238578 -0.969155
			 0.080439 -0.282321 -0.955942
			-0.530784 -0.440906 -0.723789
			-0.421130 -0.405499 -0.811307
			 0.961448  0.128539  0.243094
			 0.878232  0.203086  0.432972
			 0.095181 -0.237350 -0.966750
			 0.218300 -0.219046 -0.950981
			 0.409512 -0.254226 -0.876167
			 0.993564 -0.048924 -0.102159
			 0.981168 -0.169091 -0.093368
			 0.814891 -0.313815 -0.487312
			 0.673370 -0.281503 -0.683615
			 0.908906 -0.271866 -0.316193
			 0.921906  0.211657  0.324486
			 0.993631  0.031828  0.108094
			 0.950754  0.133195  0.279867
			 0.966509  0.143646  0.212663
			 0.976010  0.134268  0.171396
			-0.940976 -0.122651  0.315468
			 0.778838  0.141910  0.610960
			 0.492873  0.154293  0.856312
			 0.922748  0.150924  0.354625
			-0.967105 -0.209582  0.144166
			-0.916179 -0.215871  0.337662
			-0.124266  0.022438  0.991995
			-0.693160 -0.095730  0.714398
			-0.854460 -0.195848  0.481187
			-0.306556 -0.044670  0.950804
			-0.785333 -0.154081  0.599593
			-0.584923 -0.137070  0.799423
			 0.370376  0.159127  0.915150
			 0.108935  0.066096  0.991849
			-0.993806  0.060983 -0.092906
			-0.986613 -0.078785  0.142788
			-0.982585 -0.171369 -0.071831
			-0.974451 -0.191595 -0.117208
			-0.893486 -0.408382 -0.186836
			-0.958179 -0.261084  0.117167
			-0.649274 -0.422615 -0.632329
			-0.677631 -0.508397 -0.531365
			-0.816733 -0.477509 -0.323933
			-0.182083 -0.229207 -0.956196
			-0.279390 -0.306601 -0.909910
			-0.138153 -0.226007 -0.964279
			-0.034256 -0.184583 -0.982220
			 0.119388 -0.158480 -0.980118
			-0.633822 -0.499036 -0.590960
			-0.427960 -0.446741 -0.785667
			 0.996470  0.041928  0.072731
			 0.994521  0.044197  0.094732
			 0.402694 -0.248203 -0.881041
			 0.171695 -0.177083 -0.969104
			 0.264186 -0.176125 -0.948254
			 0.996882 -0.045523 -0.064456
			 0.981615 -0.085503  0.170651
			 0.927171 -0.320581 -0.193858
			 0.965889 -0.222800  0.131977
			 0.600368 -0.263655 -0.755013
			 0.794676 -0.320360 -0.515616
			 0.931554  0.030201  0.362346
			 0.947062 -0.067184  0.313942
			 0.924850  0.126923  0.358529
			 0.815324  0.081199  0.573284
			 0.757358  0.160467  0.632976
			 0.579789  0.168566  0.797139
			-0.970873 -0.231345  0.062325
			 0.018309  0.011745  0.999763
			-0.078812 -0.015831  0.996764
			-0.908034 -0.218611  0.357328
			-0.293240 -0.093874  0.951419
			-0.757155 -0.231224  0.610944
			-0.881971 -0.307250  0.357385
			-0.724919 -0.228015  0.650001
			-0.256192 -0.148363  0.955172
			-0.403876 -0.215494  0.889071
			-0.546085 -0.218933  0.808616
			-0.686979 -0.239755  0.685986
			 0.293459  0.061389  0.953999
			 0.581574  0.101551  0.807130
			 0.111627  0.007913  0.993719
			-0.929937 -0.344808  0.127766
			-0.907608 -0.410330 -0.088759
			-0.811461 -0.523426 -0.259915
			-0.882653 -0.458391 -0.103929
			-0.111807 -0.248406 -0.962182
			-0.380521 -0.349055 -0.856367
			-0.137710 -0.257420 -0.956437
			-0.082957 -0.213138 -0.973494
			-0.182905 -0.244125 -0.952339
			 0.102466 -0.139559 -0.984898
			-0.035620 -0.138160 -0.989769
			 0.073108 -0.184114 -0.980182
			 0.135833 -0.150765 -0.979193
			-0.620139 -0.522692 -0.584997
			-0.484094 -0.447371 -0.752005
			 0.502178 -0.202918 -0.840620
			 0.379245 -0.190208 -0.905535
			 0.152924 -0.167247 -0.973983
			 0.357927 -0.155446 -0.920720
			 0.160876 -0.171339 -0.971989
			 0.901152 -0.091479  0.423742
			 0.884272 -0.165037  0.436837
			 0.887315 -0.461103 -0.007434
			 0.912648 -0.366670 -0.180630
			 0.857326 -0.346777 -0.380445
			 0.737496 -0.281496 -0.613889
			 0.924236 -0.297704  0.239083
			 0.735709 -0.156944  0.658863
			 0.658026  0.014246  0.752860
			 0.076871 -0.079785  0.993844
			-0.086677 -0.082938  0.992778
			-0.668042 -0.223470  0.709775
			-0.725529 -0.353351  0.590551
			-0.835671 -0.426566  0.345970
			-0.914140 -0.393291  0.098341
			-0.016479 -0.159662  0.987034
			-0.131739 -0.204201  0.970024
			-0.288369 -0.221477  0.931553
			-0.409419 -0.330915  0.850218
			-0.425631 -0.359353  0.830484
			-0.598394 -0.308308  0.739508
			 0.408964  0.034187  0.911910
			 0.303481  0.035509  0.952176
			 0.508997  0.025161  0.860400
			 0.302045 -0.029947  0.952823
			-0.865096 -0.499817  0.042329
			-0.820012 -0.570846 -0.041410
			-0.709027 -0.565979 -0.420652
			-0.814314 -0.572344 -0.096517
			-0.320418 -0.320950 -0.891249
			-0.185773 -0.241623 -0.952422
			-0.018635 -0.208770 -0.977787
			-0.499816 -0.364421 -0.785736
			-0.183508 -0.263790 -0.946964
			-0.169489 -0.155860 -0.973130
			-0.288046 -0.276116 -0.916946
			-0.333838 -0.234775 -0.912925
			 0.014251 -0.176529 -0.984192
			-0.036069 -0.058044 -0.997662
			-0.169899 -0.001167 -0.985461
			 0.059609 -0.150227 -0.986853
			-0.602631 -0.458552 -0.653120
			 0.556540 -0.186625 -0.809589
			 0.323428 -0.173189 -0.930269
			 0.174907 -0.105189 -0.978950
			 0.843973 -0.304175  0.441800
			 0.851319 -0.453394  0.263988
			 0.815883 -0.567730  0.109627
			 0.837661 -0.461503 -0.292128
			 0.814082 -0.574983 -0.081640
			 0.837037 -0.409602 -0.362761
			 0.721654 -0.284536 -0.631074
			 0.498563 -0.082538  0.862915
			 0.754861 -0.462414  0.465143
			 0.664285 -0.430260  0.611229
			 0.588712 -0.365522  0.720980
			 0.524748 -0.310809  0.792488
			 0.125475 -0.147915  0.981008
			-0.799466 -0.529057  0.284521
			-0.787669 -0.485455  0.379357
			-0.674271 -0.475264  0.565228
			 0.012326 -0.180948  0.983416
			-0.223558 -0.298381  0.927896
			-0.034640 -0.285149  0.957857
			-0.233893 -0.524055  0.818939
			-0.347085 -0.480576  0.805344
			-0.344543 -0.401910  0.848386
			-0.481007 -0.434688  0.761366
			-0.199668 -0.519496  0.830817
			-0.311889 -0.551898  0.773391
			-0.622820 -0.530920  0.574647
			 0.360548 -0.131519  0.923422
			-0.740232 -0.587042  0.327778
			-0.748472 -0.661398 -0.048394
			-0.730565 -0.682490 -0.021951
			-0.737906 -0.642557  0.206435
			-0.711377 -0.671044 -0.208910
			-0.517554 -0.477683 -0.709899
			-0.587559 -0.634677 -0.501956
			-0.425550 -0.372783 -0.824585
			-0.230620 -0.275834 -0.933129
			-0.141930 -0.233447 -0.961955
			-0.484349 -0.481767 -0.730278
			-0.324242 -0.067143 -0.943588
			-0.453016 -0.338516 -0.824732
			-0.436180 -0.181025 -0.881463
			 0.089193  0.087141 -0.992195
			-0.139399  0.104521 -0.984705
			-0.129393  0.095632 -0.986971
			-0.030357  0.193908 -0.980550
			-0.166447  0.159115 -0.973128
			-0.248023  0.167725 -0.954124
			 0.677644 -0.326437 -0.658967
			 0.663422 -0.195546 -0.722241
			 0.718473 -0.336587 -0.608692
			 0.638747  0.010048 -0.769351
			 0.723018 -0.112052 -0.681681
			 0.372440 -0.074448 -0.925065
			 0.259525  0.086594 -0.961846
			 0.819098 -0.516454 -0.249706
			 0.912336 -0.369602 -0.176175
			 0.914149 -0.400095  0.065239
			 0.806164 -0.510714  0.298781
			 0.816818 -0.477411 -0.323864
			 0.671535 -0.527600  0.520269
			 0.717041 -0.446336  0.535384
			 0.573754 -0.441758  0.689678
			 0.487167 -0.404386  0.774041
			 0.495664 -0.305465  0.813024
			 0.497326 -0.384922  0.777497
			 0.518694 -0.283627  0.806543
			 0.241261 -0.209702  0.947533
			 0.133734 -0.218367  0.966660
			-0.122359 -0.416124  0.901038
			-0.020721 -0.352161  0.935710
			 0.134541 -0.340689  0.930500
			-0.180662 -0.630224  0.755102
			-0.158708 -0.518683  0.840107
			-0.160602 -0.604480  0.780263
			-0.237073 -0.517543  0.822160
			-0.500307 -0.585800  0.637598
			-0.230924 -0.518460  0.823330
			-0.298203 -0.558586  0.773988
			-0.206292 -0.549791  0.809428
			-0.225958 -0.569762  0.790136
			-0.363401 -0.692392  0.623324
			-0.629995 -0.713703  0.306159
			 0.410103 -0.285229  0.866291
			-0.606266 -0.758875 -0.237801
			-0.572726 -0.814410  0.093385
			-0.595438 -0.590591 -0.544662
			-0.550870 -0.403461 -0.730590
			-0.350866  0.058851 -0.934575
			-0.518929 -0.272983 -0.810058
			-0.529374 -0.102983 -0.842115
			 0.176997  0.221564 -0.958948
			-0.189257  0.164037 -0.968129
			-0.189392  0.170282 -0.967024
			-0.168663  0.207820 -0.963516
			-0.007676  0.224655 -0.974408
			 0.120461  0.364823 -0.923252
			-0.076899  0.279273 -0.957127
			-0.262524  0.228803 -0.937406
			-0.235581  0.227782 -0.944784
			 0.776739 -0.292691 -0.557681
			 0.821087  0.007317 -0.570757
			 0.777732  0.159888 -0.607921
			 0.710116  0.292663 -0.640377
			 0.587815  0.324887 -0.740892
			 0.553581  0.115992 -0.824678
			 0.422763  0.043096 -0.905215
			 0.887414 -0.164571 -0.430595
			 0.848048 -0.274088 -0.453531
			 0.362550  0.228167 -0.903602
			 0.960134 -0.166440 -0.224590
			 0.977205 -0.212291 -0.002021
			 0.913265 -0.339875  0.224572
			 0.762485 -0.506796  0.402212
			 0.723740 -0.346873  0.596556
			 0.869860 -0.317597  0.377459
			 0.884844 -0.198976  0.421260
			 0.614615 -0.286096  0.735117
			 0.539759 -0.291293  0.789816
			 0.579233 -0.217282  0.785670
			 0.368062 -0.331443  0.868721
			 0.607498 -0.162146  0.777595
			 0.736831 -0.071435  0.672292
			 0.432015 -0.127461  0.892814
			 0.620406  0.008352  0.784236
			 0.301278 -0.306469  0.902944
			-0.038703 -0.244091  0.968980
			-0.151940 -0.279116  0.948160
			-0.091493 -0.464554  0.880806
			 0.027395 -0.281195  0.959260
			 0.281013 -0.316932  0.905862
			 0.244487 -0.210971  0.946424
			 0.265414 -0.369211  0.890639
			 0.088274 -0.264546  0.960325
			-0.286116 -0.394042  0.873424
			 0.059091 -0.432296  0.899794
			 0.796569 -0.305325  0.521781
			-0.040195 -0.428514  0.902641
			-0.399806 -0.362507  0.841870
			-0.541465 -0.684103  0.488691
			-0.566542 -0.576392  0.588899
			-0.560210 -0.683052  0.468620
			-0.461487 -0.357703  0.811836
			-0.371834 -0.396660  0.839286
			-0.550024 -0.559399  0.620119
			-0.580411 -0.473330  0.662633
			-0.388806 -0.475388  0.789200
			-0.448688 -0.338149  0.827245
			-0.513383 -0.730107  0.450978
			-0.534737 -0.623113  0.570777
			-0.614430 -0.629533  0.475567
			-0.616085 -0.787679  0.000800
			-0.655537 -0.729115  0.196630
			-0.652789 -0.663395 -0.365752
			-0.630853 -0.499357 -0.593857
			-0.658021 -0.344347 -0.669652
			-0.442878  0.110083 -0.889798
			-0.365156  0.197164 -0.909828
			-0.265844  0.217143 -0.939242
			-0.708127 -0.120082 -0.695799
			-0.591132  0.090837 -0.801443
			 0.212480  0.350199 -0.912257
			 0.799633  0.141836 -0.583498
			-0.010233  0.213751 -0.976835
			-0.208631  0.171406 -0.962857
			-0.194560  0.165590 -0.966812
			 0.799007  0.120531 -0.589117
			 0.058232  0.376717 -0.924496
			 0.208719  0.532556 -0.820256
			 0.259985  0.509589 -0.820199
			-0.103847  0.263223 -0.959130
			-0.303194  0.273969 -0.912696
			-0.109533  0.171787 -0.979026
			 0.930647  0.075034 -0.358143
			 0.865679  0.264538 -0.424993