<?xml version="1.0"?>
<VTKFile type="PolyData" version="0.1" byte_order="LittleEndian" compressor="vtkZLibDataCompressor">
	<PolyData>
		<Piece NumberOfPoints="4113" NumberOfVerts="0" NumberOfLines="0" NumberOfStrips="0" NumberOfPolys="8222">
		<PointData Normals="Normals">
		<DataArray type="Float32" Name="Normals" NumberOfComponents="3" format="ascii">
			-0.182810 -0.668587  0.720813
			-0.140162 -0.683440  0.716425
			-0.035498 -0.603005  0.796948
			-0.025409 -0.663396  0.747837
			-0.301179 -0.720850  0.624232
			-0.126903 -0.758701  0.638959
			 0.046310 -0.605623  0.794403
			 0.000598 -0.667308  0.744782
			 0.118313 -0.574556  0.809869
			-0.042223 -0.753100  0.656550
			-0.121376 -0.502425  0.856059
			 0.053673 -0.457864  0.887401
			 0.061423 -0.432359  0.899607
			 0.101303 -0.512973  0.852407
			-0.014675 -0.411322  0.911372
			 0.943119 -0.199056  0.266278
			 0.780811 -0.369549  0.503754
			-0.316166 -0.623565  0.714986
			-0.260445 -0.794743  0.548227
			-0.436254 -0.745212  0.504323
			-0.455036 -0.653220  0.605182
			-0.619696 -0.665563  0.415936
			-0.169528 -0.827669  0.534999
			 0.587384 -0.522272  0.618233
			-0.255937 -0.570493  0.780406
			 0.122894 -0.739964  0.661325
			-0.007743 -0.756028  0.654494
			 0.275255 -0.665036  0.694234
			 0.245302 -0.514585  0.821602
			-0.013132 -0.824158  0.566207
			-0.216379 -0.444850  0.869074
			-0.300426 -0.497465  0.813801
			-0.108888 -0.360323  0.926451
			 0.131250 -0.289863  0.948026
			 0.144181 -0.393290  0.908039
			 0.047284 -0.302909  0.951846
			 0.183408 -0.482272  0.856607
			 0.030873 -0.246852  0.968561
			-0.089188 -0.290293  0.952773
			-0.147174 -0.599201  0.786955
			-0.356916 -0.850466  0.386419
			-0.391920 -0.798404  0.457111
			-0.597507 -0.710251  0.372195
			-0.697579 -0.648021  0.305700
			-0.659804 -0.596386  0.457146
			-0.625675 -0.518140  0.583147
			-0.392980 -0.556978  0.731671
			-0.796394 -0.481486  0.365962
			-0.810736 -0.517261  0.274130
			-0.183121 -0.850844  0.492474
			-0.345151 -0.537833  0.769160
			 0.095316 -0.851514  0.515596
			 0.296907 -0.808088  0.508763
			 0.387274 -0.714595  0.582557
			 0.392379 -0.663276  0.637263
			 0.320127 -0.574059  0.753641
			 0.252535 -0.389221  0.885852
			 0.411208 -0.518195  0.749922
			-0.022680 -0.914095  0.404866
			-0.437221 -0.397721  0.806632
			-0.230065 -0.326072  0.916923
			-0.496874 -0.467140  0.731367
			 0.131824 -0.178015  0.975158
			 0.202421 -0.212062  0.956063
			 0.176655 -0.177330  0.968167
			 0.222787 -0.305048  0.925911
			 0.251090 -0.159690  0.954700
			-0.011692 -0.211579  0.977291
			 0.010706 -0.117086  0.993064
			 0.002494 -0.132364  0.991198
			-0.164822 -0.152842  0.974409
			-0.249964 -0.875737  0.413042
			-0.414353 -0.896620  0.156154
			-0.240116 -0.936605  0.255176
			-0.163841 -0.938953  0.302528
			-0.488809 -0.781072  0.388578
			-0.607378 -0.753350  0.252104
			-0.780833 -0.584422  0.220795
			-0.830674 -0.514302  0.213245
			-0.829186 -0.527864  0.183877
			-0.699923 -0.445772  0.558028
			-0.925620 -0.257614  0.277241
			-0.869024 -0.264591  0.418078
			-0.932060 -0.291814  0.214730
			-0.177288 -0.916639  0.358249
			-0.218490 -0.895865  0.386896
			 0.115320 -0.921604  0.370604
			 0.332849 -0.881092  0.335989
			 0.458415 -0.795188  0.396902
			 0.405883 -0.751338  0.520337
			 0.482311 -0.723302  0.494176
			 0.414684 -0.706142  0.573934
			 0.459912 -0.640514  0.614999
			 0.322625 -0.359142  0.875745
			 0.517512 -0.402834  0.754921
			 0.655119 -0.528333  0.540077
			 0.552183 -0.634482  0.540857
			 0.060621 -0.976713  0.205809
			-0.065462 -0.942247  0.328458
			-0.039517 -0.971768  0.232604
			-0.000781 -0.993833  0.110881
			-0.639696 -0.375555  0.670632
			-0.598222 -0.315949  0.736414
			-0.663529 -0.351857  0.660247
			-0.348176 -0.258797  0.900998
			-0.458915 -0.261233  0.849208
			-0.759577 -0.317690  0.567553
			 0.274604 -0.114689  0.954693
			 0.120518  0.064834  0.990592
			 0.175370  0.073611  0.981747
			 0.218978 -0.190718  0.956909
			 0.310529 -0.286601  0.906329
			 0.393640 -0.064318  0.917012
			 0.397260 -0.026487  0.917324
			 0.232312 -0.172300  0.957259
			 0.362144 -0.072134  0.929327
			 0.317045 -0.127451  0.939808
			 0.157630 -0.057266  0.985836
			-0.021606 -0.073999  0.997024
			-0.152739 -0.154141  0.976172
			-0.372582 -0.152997  0.915300
			-0.325694 -0.923354  0.203326
			-0.335748 -0.937076 -0.095716
			-0.205860 -0.978580 -0.001363
			-0.505241 -0.856676  0.104104
			-0.781472 -0.608682  0.137138
			-0.646823 -0.754426  0.111630
			-0.885710 -0.431847  0.170370
			-0.866335 -0.470037  0.168907
			-0.928218 -0.335481  0.160821
			-0.972473 -0.001039  0.233012
			-0.974599 -0.020102  0.223053
			-0.932343 -0.067872  0.355148
			-0.985171 -0.079230  0.152188
			-0.216873 -0.947507  0.234938
			 0.200541 -0.949134  0.242749
			 0.468150 -0.812617  0.347114
			 0.351788 -0.928467  0.119140
			 0.604680 -0.727314  0.324617
			 0.674471 -0.599388  0.431071
			 0.482275 -0.696731  0.531014
			 0.716743 -0.367850  0.592424
			 0.730327 -0.290691  0.618160
			 0.647522 -0.272237  0.711760
			 0.515275 -0.230800  0.825362
			 0.819978 -0.332601  0.465847
			 0.182688 -0.979836 -0.080905
			-0.009917 -0.986344 -0.164399
			-0.787027 -0.288498  0.545305
			-0.825454 -0.246647  0.507731
			-0.797111 -0.325371  0.508672
			-0.770547 -0.229073  0.594796
			-0.616327 -0.198814  0.761980
			-0.888786 -0.293118  0.352338
			-0.930610 -0.122856  0.344777
			 0.173147  0.041755  0.984011
			 0.101576  0.194550  0.975619
			 0.179514  0.221742  0.958439
			 0.211877  0.233817  0.948914
			 0.171670  0.097179  0.980350
			 0.023044  0.121516  0.992322
			 0.322390 -0.217683  0.921238
			 0.626106  0.026444  0.779290
			 0.612363 -0.028248  0.790072
			 0.460513 -0.106334  0.881261
			 0.577923  0.009546  0.816035
			 0.530023 -0.135341  0.837113
			 0.150336 -0.136123  0.979219
			 0.224832 -0.136475  0.964793
			-0.105095 -0.012005  0.994390
			-0.082729 -0.100006  0.991542
			 0.110685 -0.019732  0.993660
			-0.238258 -0.283262  0.928976
			-0.413521 -0.200972  0.888038
			 0.065432 -0.115878  0.991106
			-0.115066 -0.236120  0.964887
			 0.031969 -0.112125  0.993180
			 0.063564 -0.983895 -0.167063
			-0.108690 -0.938918 -0.326525
			-0.286709 -0.937626 -0.196613
			-0.347402 -0.930992 -0.112100
			-0.494372 -0.869224  0.006829
			-0.142660 -0.958334 -0.247475
			 0.107855 -0.956524 -0.270980
			-0.685077 -0.724775 -0.073288
			-0.815233 -0.574666  0.071792
			-0.878875 -0.463347  0.113525
			-0.941091 -0.323623  0.098061
			-0.977133 -0.211570  0.021208
			-0.940294 -0.245738  0.235498
			-0.987474 -0.102411  0.120032
			-0.984676 -0.005678  0.174304
			-0.995016 -0.016442  0.098354
			-0.982302 -0.039662  0.183059
			-0.974241 -0.012101  0.225186
			 0.469049 -0.857673  0.210689
			 0.578147 -0.807144  0.119438
			 0.457682 -0.875796 -0.153324
			 0.533779 -0.844834 -0.036541
			 0.634885 -0.764312  0.112905
			 0.728835 -0.666836  0.155336
			 0.749995 -0.558659  0.354129
			 0.820448 -0.444526  0.359530
			 0.873525 -0.353502  0.334649
			 0.804660 -0.236549  0.544580
			 0.750293 -0.198017  0.630753
			 0.777544 -0.192526  0.598631
			 0.826993 -0.160944  0.538683
			 0.771642 -0.136860  0.621159
			 0.748107 -0.092114  0.657154
			 0.694727 -0.128896  0.707630
			 0.745842 -0.034562  0.665226
			 0.875488 -0.317988  0.363875
			 0.905856 -0.102568  0.410980
			 0.903476 -0.216874  0.369725
			 0.049903 -0.979391 -0.195713
			 0.067252 -0.962515 -0.262757
			 0.368736 -0.894550 -0.252613
			 0.199053 -0.937520 -0.285365
			 0.712892 -0.683771 -0.155699
			-0.949386 -0.179144  0.258020
			-0.936080 -0.256427  0.240832
			-0.907351 -0.175444  0.382013
			-0.849193 -0.168960  0.500324
			-0.662339 -0.273976  0.697312
			-0.814246 -0.245592  0.526011
			-0.973790 -0.224335  0.037505
			-0.113440  0.079611  0.990350
			-0.013350  0.073972  0.997171
			 0.147311  0.091937  0.984808
			 0.164227 -0.024112  0.986128
			 0.208901  0.002587  0.977933
			 0.799052  0.080250  0.595882
			 0.780598  0.073386  0.620711
			 0.709851  0.022311  0.703998
			 0.685917 -0.260893  0.679302
			 0.840802 -0.084653  0.534683
			 0.385699 -0.199379  0.900824
			 0.298731 -0.192193  0.934784
			 0.015607 -0.119383  0.992726
			-0.116557 -0.021615  0.992949
			 0.201813 -0.150163  0.967844
			-0.015515 -0.062316  0.997936
			-0.195424 -0.087900  0.976772
			-0.148894 -0.102903  0.983484
			 0.219558  0.014149  0.975497
			 0.335881  0.035472  0.941236
			-0.367838 -0.340589  0.865271
			-0.026491 -0.168125  0.985410
			-0.161003 -0.266919  0.950175
			 0.137031 -0.036284  0.989902
			 0.212343  0.029801  0.976741
			 0.094526 -0.039962  0.994720
			 0.826103 -0.539155 -0.163908
			-0.028303 -0.978090 -0.206249
			 0.712441 -0.694981 -0.097104
			 0.050962 -0.957137 -0.285117
			 0.050410 -0.903536 -0.425537
			-0.109421 -0.832029 -0.543834
			 0.035005 -0.829692 -0.557122
			-0.294751 -0.906109 -0.303460
			-0.386294 -0.916674 -0.102393
			-0.494439 -0.859886 -0.126990
			-0.565824 -0.750593 -0.341252
			-0.813833 -0.565852 -0.132239
			-0.467758 -0.818789 -0.332847
			-0.483400 -0.837254 -0.255597
			-0.830008 -0.557722  0.005690
			-0.901798 -0.431447  0.024762
			-0.940220 -0.293183  0.173291
			-0.987268 -0.154883 -0.036240
			-0.942762 -0.111345  0.314327
			-0.976895 -0.051650  0.207385
			-0.993614 -0.112770  0.003642
			-0.981842 -0.184538  0.043953
			-0.978295 -0.175073  0.110852
			-0.949877  0.022316  0.311828
			-0.958009 -0.032618  0.284876
			-0.992529 -0.082426  0.089951
			-0.983283  0.021505  0.180811
			 0.525121 -0.817770 -0.235585
			 0.644615 -0.761148 -0.071594
			 0.440568 -0.841104 -0.313758
			 0.771539 -0.634983  0.039042
			 0.837838 -0.490599  0.239456
			 0.842024 -0.400221  0.361687
			 0.965388 -0.180739  0.188041
			 0.978470 -0.141589  0.150163
			 0.814741 -0.062862  0.576407
			 0.907937  0.056624  0.415263
			 0.934180  0.002597  0.356792
			 0.967147 -0.046556  0.249917
			 0.860806  0.100834  0.498844
			 0.971902  0.011928  0.235083
			 0.832305  0.062933  0.550733
			 0.963241 -0.091466  0.252590
			 0.954454  0.067679  0.290581
			 0.298548 -0.946016 -0.126183
			 0.278192 -0.883620 -0.376596
			 0.236160 -0.868992 -0.434835
			-0.973126 -0.199540  0.114929
			-0.932843 -0.251210  0.258259
			-0.749932 -0.412660  0.517023
			-0.531679 -0.412567  0.739666
			-0.067783 -0.125528  0.989772
			-0.008400 -0.121322  0.992578
			 0.042676 -0.068905  0.996710
			 0.208622  0.044635  0.976977
			 0.901695  0.117957  0.415971
			 0.926228  0.060029  0.372153
			 0.838112  0.032543  0.544526
			 0.810071 -0.273937  0.518405
			 0.523917 -0.274672  0.806267
			 0.700228 -0.307995  0.644065
			 0.953694 -0.112998  0.278745
			 0.866748 -0.257494  0.427135
			 0.160280 -0.060817  0.985196
			 0.410103 -0.133219  0.902257
			-0.185375 -0.005420  0.982653
			-0.119803  0.017420  0.992645
			-0.104388 -0.055211  0.993003
			-0.240150  0.003497  0.970729
			-0.212142  0.006447  0.977217
			-0.132066  0.032945  0.990693
			-0.156566 -0.122822  0.980001
			 0.127720  0.028367  0.991405
			-0.134007  0.036649  0.990302
			-0.293358 -0.390164  0.872762
			 0.139234  0.087066  0.986425
			-0.040184 -0.035776  0.998552
			-0.192677 -0.133499  0.972139
			 0.132186 -0.873339 -0.468835
			-0.021452 -0.780230 -0.625125
			-0.302305 -0.828189 -0.471926
			-0.167533 -0.761374 -0.626292
			-0.074162 -0.754235 -0.652402
			 0.220723 -0.768497 -0.600578
			 0.035119 -0.734215 -0.678008
			 0.041433 -0.745406 -0.665321
			 0.332546 -0.697031 -0.635264
			-0.658109 -0.613044 -0.437115
			-0.451418 -0.680644 -0.577015
			-0.397684 -0.797189 -0.454243
			-0.929735 -0.366841 -0.031949
			-0.833562 -0.490374 -0.254378
			-0.957276 -0.236684  0.166141
			-0.958406 -0.071558  0.276294
			-0.967398 -0.065489  0.244646
			-0.974787 -0.221080  0.030236
			-0.990709 -0.135833  0.006653
			-0.968888  0.027396  0.245980
			-0.979664  0.064537  0.189985
			-0.996306 -0.084013  0.017805
			 0.433983 -0.796163 -0.421643
			 0.566148 -0.762349 -0.313530
			 0.517492 -0.753950 -0.404676
			 0.720367 -0.687349 -0.092864
			 0.784721 -0.603792 -0.140169
			 0.705096 -0.649272 -0.285106
			 0.873570 -0.480106  0.079832
			 0.808239 -0.588027 -0.031206
			 0.889947 -0.309695  0.334788
			 0.940146 -0.279023  0.195630
			 0.896695 -0.280673  0.342287
			 0.946551 -0.167731  0.275513
			 0.966091 -0.076442  0.246628
			 0.991745 -0.073459  0.105098
			 0.906848  0.226392  0.355490
			 0.903171  0.178930  0.390212
			 0.905470  0.055697  0.420740
			 0.959359 -0.102198  0.263034
			 0.903948  0.154978  0.398572
			 0.880319  0.223518  0.418424
			 0.966522 -0.058472  0.249832
			 0.983291  0.000244  0.182041
			 0.361613 -0.721346 -0.590674
			-0.973128 -0.224700  0.050313
			-0.941404 -0.336774  0.018466
			-0.854710 -0.504354  0.122873
			-0.546340 -0.538466  0.641535
			-0.689731 -0.543648  0.478246
			-0.043719  0.021695  0.998808
			 0.088180  0.089854  0.992044
			 0.074818  0.205515  0.975790
			 0.965077  0.085910  0.247478
			 0.968501 -0.011436  0.248748
			 0.880272 -0.303228  0.364931
			 0.741077 -0.404687  0.535755
			 0.599402 -0.326056  0.731030
			 0.840124 -0.353635  0.411260
			 0.917562 -0.239173  0.317610
			 0.970222 -0.193604  0.145553
			 0.960115 -0.124541  0.250337
			 0.994250  0.003306  0.107034
			 0.994442 -0.036752  0.098664
			 0.295588 -0.038984  0.954520
			 0.235629  0.023835  0.971551
			 0.086869  0.101551  0.991030
			 0.601666 -0.286430  0.745624
			 0.535492 -0.129821  0.834503
			 0.375415  0.018754  0.926667
			-0.237330  0.026540  0.971067
			-0.043566  0.067312  0.996780
			 0.624780  0.001538  0.780799
			-0.073770  0.045357  0.996243
			 0.658093  0.024600  0.752535
			-0.141462  0.038004  0.989214
			-0.347480  0.069610  0.935100
			-0.091940  0.211125  0.973126
			-0.348103  0.045877  0.936333
			-0.433732 -0.471506  0.767827
			-0.416065 -0.308528  0.855395
			-0.290103 -0.219344  0.931519
			 0.056286  0.156978  0.985997
			-0.069534  0.102551  0.992294
			-0.236800 -0.026740  0.971190
			-0.331329 -0.746776 -0.576669
			-0.306098 -0.608656 -0.732013
			-0.185106 -0.654669 -0.732901
			-0.091312 -0.715102 -0.693030
			-0.047295 -0.791923 -0.608786
			 0.781720 -0.462656 -0.418167
			 0.296058 -0.713422 -0.635121
			-0.014616 -0.761919 -0.647508
			 0.213092 -0.698222 -0.683430
			-0.001668 -0.634012 -0.773322
			 0.049772 -0.587511 -0.807684
			 0.856334 -0.371063 -0.359171
			-0.461566 -0.606472 -0.647417
			-0.658677 -0.534448 -0.529632
			-0.366639 -0.583962 -0.724268
			-0.380366 -0.553839 -0.740665
			-0.382684 -0.626531 -0.678979
			-0.950207 -0.308222 -0.045888
			-0.876743 -0.417546 -0.238697
			-0.982402 -0.175774  0.063171
			-0.982321 -0.132043  0.132699
			-0.921008 -0.383823 -0.066521
			-0.910449 -0.402782 -0.094071
			-0.970512 -0.240510 -0.016164
			-0.973050 -0.230509  0.006263
			-0.952972 -0.022522  0.302221
			-0.969232 -0.033739  0.243825
			-0.961071 -0.261021  0.090617
			 0.469857 -0.677364 -0.566050
			 0.588603 -0.673747 -0.446779
			 0.889978 -0.455908 -0.009321
			 0.854805 -0.501671 -0.132794
			 0.735178 -0.599230 -0.316918
			 0.856394 -0.475977 -0.200087
			 0.808327 -0.550111 -0.209727
			 0.941171 -0.333330  0.055578
			 0.976964 -0.172457  0.125698
			 0.895069  0.277883  0.348758
			 0.928410  0.234210  0.288446
			 0.972300  0.123628  0.198367
			 0.799493  0.243923  0.548919
			 0.932565  0.089934  0.349622
			 0.825441  0.175692  0.536451
			 0.882664  0.226221  0.411982
			 0.979464 -0.181025  0.088768
			 0.990165 -0.036607  0.135028
			 0.970959  0.033356  0.236910
			 0.376030 -0.673859 -0.636015
			 0.331717 -0.684193 -0.649495
			-0.777754 -0.608538 -0.157419
			-0.854172 -0.519259 -0.027583
			-0.704860 -0.634250  0.317648
			-0.820486 -0.571488  0.014301
			-0.826299 -0.561799  0.040145
			-0.753716 -0.655138  0.052023
			-0.667332 -0.492466  0.558699
			-0.596225 -0.468612  0.651858
			 0.040264  0.114251  0.992636
			 0.073659  0.170486  0.982603
			-0.169036  0.136692  0.976085
			-0.103488  0.207215  0.972807
			 0.001254  0.180025  0.983661
			 0.900281 -0.393754  0.185611
			 0.862131 -0.342208  0.373663
			 0.826619 -0.408761  0.386801
			 0.780997 -0.430707  0.452256
			 0.731656 -0.418213  0.538310
			 0.671632 -0.293801  0.680141
			 0.977607 -0.089000  0.190691
			 0.986775 -0.121062  0.107795
			 0.979111 -0.046326  0.197978
			 0.982827 -0.107528  0.149960
			 0.956477 -0.291372  0.015949
			 0.977468 -0.094393  0.188804
			 0.990903  0.009145  0.134270
			 0.330316  0.111036  0.937317
			 0.045558  0.228516  0.972474
			 0.289298  0.160592  0.943672
			 0.580559 -0.078003  0.810473
			 0.501486  0.137175  0.854222
			-0.378945  0.006511  0.925396
			 0.034256  0.047922  0.998263
			-0.239249  0.042799  0.970015
			-0.075142  0.106951  0.991421
			-0.026863  0.108603  0.993722
			-0.021048  0.131522  0.991090
			 0.799917  0.013627  0.599956
			-0.199162  0.048982  0.978742
			-0.141719  0.118356  0.982806
			-0.257093  0.165654  0.952083
			-0.390030  0.120814  0.912842
			-0.039517  0.231396  0.972057
			 0.015139  0.265538  0.963982
			 0.099970  0.300769  0.948443
			-0.341481 -0.076901  0.936738
			-0.450748 -0.160730  0.878062
			-0.570856 -0.350138  0.742648
			-0.292627 -0.626298 -0.722579
			-0.125275 -0.586629 -0.800108
			 0.470711 -0.653365 -0.592913
			 0.767837 -0.476968 -0.427700
			 0.126072 -0.693139 -0.709693
			 0.073204 -0.611184 -0.788096
			-0.051696 -0.522578 -0.851022
			 0.173597 -0.490752 -0.853831
			 0.039492 -0.481646 -0.875476
			-0.518571 -0.506433 -0.688919
			-0.339062 -0.606209 -0.719408
			-0.382881 -0.533334 -0.754292
			-0.731036 -0.399246 -0.553344
			-0.926521 -0.297241 -0.230664
			-0.982950 -0.179314  0.040697
			-0.948838 -0.305522 -0.079772
			-0.903601 -0.337235 -0.264154
			-0.969820 -0.053682  0.237838
			-0.863388 -0.486932 -0.132126
			-0.434716 -0.870585 -0.230441
			 0.892519 -0.439537  0.101076
			-0.960149 -0.274882  0.050541
			-0.949271 -0.075468  0.305270
			-0.941870 -0.335386  0.019941
			-0.958226 -0.261047  0.116867
			-0.894185 -0.446703  0.029802
			 0.511759 -0.581150 -0.632746
			 0.418284 -0.592400 -0.688550
			 0.501686 -0.615146 -0.608200
			 0.687938 -0.573276 -0.445080
			 0.709770 -0.592865 -0.380443
			 0.546700 -0.646585 -0.532022
			 0.931098 -0.364664 -0.008785
			 0.893185 -0.442800 -0.078413
			 0.854819 -0.431466 -0.288306
			 0.952414 -0.302819 -0.034750
			 0.962303 -0.224167 -0.154022
			 0.950252  0.142997  0.276720
			 0.811516  0.215639  0.543084
			 0.895277  0.100204  0.434095
			 0.930179  0.076796  0.358983
			 0.845251  0.155032  0.511386
			 0.784489  0.174404  0.595113
			 0.946407  0.048240  0.319353
			 0.953132  0.052532  0.297960
			 0.991462 -0.122868  0.043662
			 0.996063 -0.075954 -0.045707
			 0.999278 -0.020715  0.031843
			 0.992008  0.001184  0.126172
			 0.937047  0.068889  0.342340
			 0.327066 -0.633853 -0.700898
			 0.227792 -0.652502 -0.722739
			-0.781703 -0.623641 -0.003540
			-0.689215 -0.719971  0.081391
			-0.710453 -0.673825 -0.203021
			-0.711013 -0.653730 -0.259030
			-0.794886 -0.575595 -0.191958
			-0.811547 -0.583492  0.030472
			-0.735157 -0.677227 -0.030119
			-0.691524 -0.456242  0.560034
			-0.684893 -0.645742  0.337548
			-0.640683 -0.729092  0.240727
			-0.619277 -0.233909  0.749522
			-0.668468 -0.333450  0.664802
			 0.021984  0.126693  0.991698
			-0.309754  0.041230  0.949923
			-0.292973  0.190217  0.937008
			-0.107494  0.214841  0.970715
			-0.090303  0.145927  0.985165
			 0.838487 -0.443736  0.316287
			 0.931603 -0.347943 -0.105130
			 0.911085 -0.405020  0.076700
			 0.771475 -0.506044  0.385676
			 0.751290 -0.432639  0.498385
			 0.700531 -0.253693  0.667005
			 0.965143 -0.015074  0.261290
			 0.886507  0.062403  0.458489
			 0.891362  0.047281  0.450820
			 0.977666 -0.206431 -0.039433
			 0.957603 -0.092204  0.272938
			 0.974388 -0.148700  0.168689
			 0.907342  0.030809  0.419263
			 0.420167  0.185291  0.888328
			 0.297555  0.210183  0.931281
			 0.761109 -0.166047  0.627010
			 0.697247 -0.024180  0.716423
			 0.692450  0.135723  0.708585
			 0.597544  0.277181  0.752404
			 0.505152  0.344188  0.791427
			 0.625961  0.267248  0.732633
			 0.178364  0.134217  0.974768
			 0.104926  0.136449  0.985075
			 0.330501  0.132922  0.934399
			 0.005696  0.160638  0.986997
			 0.052686  0.193693  0.979646
			 0.097035  0.237510  0.966526
			-0.060763  0.248996  0.966597
			 0.045232  0.201844  0.978373
			 0.341209  0.270514  0.900222
			 0.217148  0.348237  0.911909
			 0.040316  0.310934  0.949576
			-0.506495 -0.060820  0.860095
			-0.231022 -0.518877 -0.823040
			-0.114584 -0.508228 -0.853566
			-0.112561 -0.482982 -0.868366
			 0.227640 -0.567534 -0.791256
			-0.056908 -0.368611 -0.927840
			 0.309970 -0.509277 -0.802842
			 0.170782 -0.383385 -0.907662
			 0.307037 -0.364210 -0.879249
			 0.078000 -0.432159 -0.898418
			 0.326793 -0.449904 -0.831140
			-0.428058 -0.427025 -0.796502
			-0.753737 -0.343684 -0.560145
			-0.617760 -0.365578 -0.696222
			-0.818531 -0.368606 -0.440610
			-0.923521 -0.292793 -0.247752
			-0.912056 -0.242732 -0.330507
			-0.954394 -0.208161 -0.214011
			-0.989885 -0.140805 -0.017348
			-0.969514 -0.230030 -0.084428
			-0.981247 -0.007706  0.192599
			-0.995015 -0.098731  0.014081
			-0.848747 -0.503338 -0.162107
			 0.799587 -0.579731 -0.156757
			-0.804200 -0.556474 -0.208805
			-0.955229 -0.002955  0.295851
			-0.964766 -0.096410  0.244808
			-0.973607 -0.165524  0.157132
			-0.965946 -0.257868  0.021281
			-0.934311 -0.346966 -0.081723
			-0.921117 -0.386778  0.044114
			-0.889351 -0.440633 -0.122052
			-0.850666 -0.496236 -0.173541
			 0.365513 -0.576086 -0.731113
			 0.820002 -0.359197 -0.445617
			 0.822927 -0.345750 -0.450830
			 0.379315 -0.562543 -0.734619
			 0.435356 -0.535316 -0.723811
			 0.576742 -0.561213 -0.593640
			 0.795462 -0.399726 -0.455477
			 0.921158 -0.249383 -0.298790
			 0.969779 -0.151102 -0.191563
			 0.842766  0.151804  0.516431
			 0.842676  0.177798  0.508217
			 0.799681  0.193607  0.568354
			 0.821134  0.185381  0.539789
			 0.947788 -0.161261 -0.275124
			 0.996538 -0.054969 -0.062379
			 0.999709 -0.023781 -0.003942
			 0.990832  0.011516  0.134609
			 0.999479 -0.023631 -0.021970
			 0.956816  0.124723  0.262579
			 0.869275  0.124556  0.478380
			 0.966057  0.097407  0.239260
			 0.280096 -0.588576 -0.758370
			 0.317889 -0.581151 -0.749139
			-0.778788 -0.580627  0.237405
			-0.704253 -0.612392 -0.359171
			-0.868447 -0.489402 -0.079284
			-0.821784 -0.520556 -0.231716
			-0.724101 -0.564063 -0.396877
			-0.912664 -0.379143  0.152628
			-0.890554 -0.364618  0.271968
			-0.834192 -0.387509  0.392379
			-0.744139 -0.396396  0.537706
			-0.673935 -0.227887  0.702765
			-0.008713  0.109397  0.993960
			-0.402961  0.059499  0.913281
			-0.549234  0.055225  0.833842
			-0.494347  0.098770  0.863635
			-0.649181  0.076165  0.756811
			-0.165742  0.220399  0.961225
			-0.188467  0.162574  0.968530
			-0.177467  0.182998  0.966963
			-0.151837  0.117751  0.981367
			 0.809749 -0.496161  0.313259
			 0.907644 -0.378508 -0.181424
			 0.990792 -0.133520 -0.022456
			 0.944199 -0.235586 -0.230191
			 0.945439 -0.223437  0.237109
			 0.979480 -0.191989 -0.061317
			 0.905030 -0.327415  0.271514
			 0.924200 -0.301681 -0.234186
			 0.866139 -0.396096  0.304814
			 0.834117 -0.315373  0.452536
			 0.773061 -0.281549  0.568425
			 0.988703 -0.047389  0.142200
			 0.898417  0.010613  0.439015
			 0.847279  0.163056  0.505501
			 0.873902 -0.251502  0.415983
			 0.849790 -0.138856  0.508503
			 0.808447  0.015420  0.588367
			 0.821383  0.282616  0.495438
			 0.877277  0.120449  0.464627
			 0.707246  0.372355  0.600962
			 0.613055  0.411108  0.674651
			 0.752051  0.410661  0.515535
			 0.354316  0.338593  0.871674
			 0.016127  0.156896  0.987483
			-0.082473  0.129224  0.988180
			-0.043111  0.124141  0.991328
			 0.043759  0.141209  0.989012
			 0.054143  0.189878  0.980314
			 0.093048  0.286048  0.953687
			 0.097261  0.239931  0.965906
			 0.091405  0.160792  0.982747
			 0.107787  0.198121  0.974233
			-0.581727 -0.087148  0.808702
			-0.192365 -0.413946 -0.889744
			 0.308360 -0.571554 -0.760421
			-0.199856 -0.274756 -0.940514
			-0.144648 -0.249736 -0.957449
			 0.090426 -0.331383 -0.939153
			 0.051015 -0.261325 -0.963902
			 0.001228 -0.216980 -0.976175
			 0.494805 -0.507101 -0.705703
			 0.293457 -0.495525 -0.817519
			 0.355027 -0.254625 -0.899512
			 0.159100 -0.284693 -0.945324
			 0.363641 -0.270331 -0.891452
			 0.259680 -0.440283 -0.859487
			-0.456849 -0.352595 -0.816680
			-0.316100 -0.338663 -0.886221
			-0.832244 -0.268849 -0.484862
			-0.894093 -0.266806 -0.359738
			-0.476660 -0.312549 -0.821650
			-0.643298 -0.272263 -0.715570
			-0.962247 -0.205380 -0.178607
			-0.972567 -0.183681 -0.142744
			-0.956593 -0.192624 -0.218692
			-0.976924 -0.018363  0.212798
			-0.988827 -0.133026 -0.067267
			-0.996464 -0.084018 -0.000032
			-0.990633  0.024225  0.134381
			-0.963560 -0.263374 -0.046752
			-0.998641 -0.048434 -0.019258
			-0.826702 -0.467544 -0.312997
			-0.894502 -0.385879 -0.225750
			 0.889008 -0.288677 -0.355430
			 0.511794 -0.521860 -0.682443
			 0.439124 -0.487356 -0.754755
			 0.581671 -0.460808 -0.670309
			 0.863507 -0.262524 -0.430624
			 0.727064 -0.354677 -0.587862
			 0.844042  0.204757  0.495650
			 0.798789 -0.232542 -0.554851
			 0.902539 -0.154372 -0.401987
			 0.987990 -0.074226 -0.135524
			 0.999188  0.038238 -0.012707
			 0.965566 -0.086105 -0.245495
			 0.947238 -0.048348 -0.316863
			 0.965316  0.157304  0.208375
			 0.974314  0.168497  0.149404
			 0.900892  0.029304  0.433052
			 0.936779  0.140633  0.320417
			 0.976030  0.208662  0.061845
			-0.705208 -0.531063 -0.469738
			-0.897477 -0.340369 -0.280508
			-0.967486 -0.250662  0.033755
			-0.845323 -0.365243 -0.389906
			-0.767872 -0.484770 -0.418772
			-0.851216 -0.177054  0.494049
			-0.940166 -0.243489  0.238329
			-0.766766 -0.224529  0.601379
			-0.671461 -0.103965  0.733711
			-0.690483 -0.011986  0.723249
			-0.746007 -0.014002  0.665791
			-0.727034  0.007142  0.686564
			-0.825356  0.038768  0.563280
			-0.683814  0.093288  0.723669
			-0.590071  0.127382  0.797239
			-0.152377  0.135238  0.979026
			-0.337090  0.175271  0.925014
			-0.184521  0.244406  0.951955
			-0.273244  0.128745  0.953291
			-0.421248  0.245261  0.873153
			-0.447450  0.164116  0.879121
			-0.319576  0.096021  0.942683
			 0.984481 -0.169349 -0.046016
			 0.914583 -0.264685 -0.305744
			 0.954438 -0.232370 -0.187222
			 0.938998 -0.045585  0.340888
			 0.912328 -0.249355 -0.324777
			 0.958902 -0.165387 -0.230553
			 0.991716 -0.036495 -0.123158
			 0.994325  0.048720  0.094569
			 0.994582 -0.090925  0.050398
			 0.944671 -0.152652  0.290334
			 0.924792 -0.046442  0.377629
			 0.950853  0.196639  0.239190
			 0.901557  0.325359  0.285194
			 0.705100  0.417570  0.573122
			 0.752524  0.413823  0.512307
			 0.634885  0.344056  0.691771
			 0.823265  0.408084  0.394591
			 0.486945  0.333100  0.807421
			 0.283198  0.293432  0.913070
			-0.071469  0.093831  0.993020
			-0.230436  0.065025  0.970913
			 0.061333  0.113176  0.991680
			 0.095157  0.137985  0.985853
			 0.056695  0.120166  0.991134
			 0.397320  0.236173  0.886769
			 0.161379  0.156221  0.974449
			-0.112481 -0.118125 -0.986608
			-0.276798 -0.248575 -0.928221
			-0.201973 -0.168350 -0.964814
			-0.036326 -0.135292 -0.990140
			 0.139161 -0.234028 -0.962219
			 0.082896 -0.110620 -0.990400
			 0.081976 -0.005236 -0.996621
			 0.081806  0.024400 -0.996350
			 0.194547 -0.482498 -0.854018
			 0.390206 -0.422816 -0.817903
			 0.222613 -0.215115 -0.950878
			 0.296639 -0.225755 -0.927922
			 0.863859 -0.108936 -0.491814
			 0.765629 -0.154178 -0.624533
			 0.410356 -0.333629 -0.848704
			 0.429780 -0.247451 -0.868365
			 0.383464 -0.169462 -0.907876
			 0.373952 -0.429957 -0.821764
			 0.352685 -0.436470 -0.827712
			 0.375793 -0.131674 -0.917301
			-0.396694 -0.260654 -0.880167
			-0.808123 -0.218766 -0.546881
			-0.939646 -0.169268 -0.297345
			-0.585937 -0.254009 -0.769517
			-0.994953  0.035783  0.093747
			-0.995311 -0.004731 -0.096614
			-0.924832 -0.268022 -0.269909
			-0.970908 -0.228162 -0.072666
			-0.994423  0.031958 -0.100502
			-0.971234  0.136023 -0.195455
			-0.971984  0.152297 -0.179035
			-0.986030 -0.150317 -0.071763
			-0.990901 -0.129085 -0.038094
			-0.953484  0.000863 -0.301442
			-0.982618 -0.106034 -0.152374
			-0.821326 -0.362268 -0.440664
			 0.466615 -0.409315 -0.784048
			 0.559480 -0.334144 -0.758505
			 0.653185 -0.251414 -0.714242
			 0.687736 -0.206457 -0.695984
			 0.799755 -0.127873 -0.586550
			 0.951538 -0.007619 -0.307437
			 0.990896  0.063887 -0.118507
			 0.713181 -0.135423 -0.687775
			 0.861216 -0.091547 -0.499927
			 0.947048  0.220066  0.233820
			 0.958272 -0.011180  0.285640
			 0.961200  0.201472  0.188423
			 0.929163  0.172963 -0.326711
			 0.952739  0.245905 -0.178382
			 0.967440  0.168568 -0.188801
			 0.930254  0.358554  0.077885
			 0.938392  0.292696  0.183709