<?xml version="1.0"?>
<VTKFile type="PolyData" version="0.1" byte_order="LittleEndian" compressor="vtkZLibDataCompressor">
	<PolyData>
		<Piece NumberOfPoints="1133" NumberOfVerts="0" NumberOfLines="0" NumberOfStrips="0" NumberOfPolys="2262">
		<PointData Normals="Normals">
		<DataArray type="Float32" Name="Normals" NumberOfComponents="3" format="ascii">
			 0.234923 -0.187070 -0.953843
			 0.208714 -0.204603 -0.956335
			 0.216841 -0.216607 -0.951873
			 0.111717 -0.168054 -0.979427
			 0.149644 -0.163145 -0.975187
			 0.297749 -0.107510 -0.948571
			 0.194032 -0.244371 -0.950071
			 0.113020 -0.198399 -0.973583
			 0.115692 -0.244776 -0.962653
			 0.086281 -0.180005 -0.979874
			 0.301583 -0.197600 -0.932739
			 0.204415 -0.204189 -0.957351
			 0.082734 -0.179844 -0.980210
			 0.274730 -0.246130 -0.929485
			 0.285131 -0.260755 -0.922338
			 0.190035 -0.290591 -0.937786
			 0.217828 -0.113678 -0.969344
			-0.020660 -0.182375 -0.983012
			-0.077351 -0.175332 -0.981466
			 0.017269 -0.212039 -0.977109
			 0.317663 -0.088608 -0.944054
			-0.109443 -0.247741 -0.962625
			 0.025080 -0.170755 -0.984994
			 0.134209 -0.297658 -0.945192
			 0.057642 -0.230729 -0.971309
			 0.062913 -0.284018 -0.956753
			 0.836355 -0.105750 -0.537892
			 0.143345 -0.220792 -0.964730
			 0.244033 -0.158439 -0.956737
			 0.335941 -0.108881 -0.935569
			 0.748294 -0.089465 -0.657307
			 0.017403 -0.156662 -0.987499
			 0.221411 -0.272115 -0.936446
			 0.176240 -0.325300 -0.929042
			 0.277317 -0.273730 -0.920960
			 0.128500 -0.159090 -0.978866
			 0.115473 -0.122348 -0.985747
			 0.299044 -0.064470 -0.952059
			 0.121652 -0.193902 -0.973449
			 0.095858 -0.240127 -0.965997
			 0.057573 -0.161061 -0.985264
			 0.130953 -0.161257 -0.978186
			-0.023885 -0.299693 -0.953737
			-0.178537 -0.238163 -0.954674
			-0.103175 -0.250371 -0.962637
			-0.180622 -0.293603 -0.938708
			-0.196939 -0.194675 -0.960894
			 0.048182 -0.320185 -0.946129
			 0.176495 -0.268280 -0.947035
			 0.949912 -0.048204 -0.308779
			 0.336519 -0.240273 -0.910508
			 0.309184 -0.165763 -0.936444
			 0.255966 -0.141672 -0.956248
			 0.629915 -0.074034 -0.773127
			 0.684182 -0.143222 -0.715110
			 0.683887 -0.063182 -0.726847
			 0.755266  0.024163 -0.654973
			 0.164297 -0.237119 -0.957487
			 0.212912 -0.272430 -0.938323
			 0.458401 -0.180333 -0.870258
			 0.496255 -0.188094 -0.847557
			 0.107283 -0.218890 -0.969834
			 0.299922 -0.097981 -0.948919
			-0.158928 -0.167558 -0.972968
			 0.050368 -0.126145 -0.990732
			 0.249013 -0.070291 -0.965946
			-0.203711 -0.180890 -0.962175
			 0.361871 -0.049330 -0.930922
			 0.413653 -0.190395 -0.890304
			 0.134630 -0.253060 -0.958037
			 0.144006 -0.177659 -0.973499
			 0.479162 -0.151202 -0.864605
			 0.012601 -0.318896 -0.947706
			-0.087051 -0.303689 -0.948786
			-0.036577 -0.350538 -0.935834
			-0.062464 -0.320463 -0.945199
			-0.070537 -0.251369 -0.965318
			-0.165262 -0.251014 -0.953772
			-0.034124 -0.228076 -0.973045
			-0.044382 -0.247341 -0.967912
			-0.128602 -0.209766 -0.969257
			-0.223737 -0.225201 -0.948275
			 0.090628 -0.257234 -0.962090
			 0.228355 -0.214789 -0.949589
			 0.435766 -0.192889 -0.879148
			 0.475850 -0.229909 -0.848945
			 0.859305 -0.077751 -0.505519
			 0.915207 -0.059840 -0.398516
			 0.820338 -0.033479 -0.570899
			 0.876224 -0.104392 -0.470461
			 0.902818 -0.067113 -0.424753
			 0.690766 -0.142361 -0.708925
			 0.962316  0.052816 -0.266755
			 0.911358 -0.001456 -0.411611
			 0.934566  0.035221 -0.354042
			 0.223774 -0.243934 -0.943621
			 0.101603 -0.043095 -0.993891
			 0.176048 -0.148718 -0.973083
			 0.361812 -0.252664 -0.897359
			 0.224654 -0.177073 -0.958215
			 0.559222 -0.159239 -0.813581
			 0.534599 -0.106810 -0.838329
			 0.336715 -0.119757 -0.933960
			 0.362430  0.020636 -0.931782
			 0.381362 -0.021917 -0.924166
			-0.157593 -0.153569 -0.975490
			-0.341145 -0.206832 -0.916974
			-0.354604 -0.159850 -0.921251
			 0.182202 -0.085789 -0.979511
			 0.742738 -0.107169 -0.660950
			 0.870557 -0.095145 -0.482782
			 0.718357 -0.120248 -0.685203
			 0.886423 -0.014741 -0.462641
			-0.052932 -0.275554 -0.959827
			-0.054305 -0.310366 -0.949065
			-0.155774 -0.320980 -0.934187
			-0.154583 -0.381586 -0.911316
			-0.170457 -0.314111 -0.933958
			-0.133388 -0.252222 -0.958432
			-0.048016 -0.264391 -0.963220
			-0.130667 -0.241728 -0.961506
			-0.115580 -0.270216 -0.955837
			 0.009188 -0.226032 -0.974077
			 0.046230 -0.212647 -0.976035
			-0.280404 -0.226577 -0.932758
			-0.110993 -0.248591 -0.962228
			-0.069781 -0.253081 -0.964925
			 0.033848 -0.145251 -0.988816
			 0.779930 -0.122685 -0.613725
			 0.390642 -0.173201 -0.904102
			 0.866506 -0.124557 -0.483377
			 0.996438  0.039328 -0.074594
			 0.996405  0.077676 -0.033823
			 0.986110 -0.030231 -0.163321
			 0.996458 -0.035209 -0.076371
			 0.999100  0.000973 -0.042407
			 0.968820 -0.042593 -0.244078
			 0.787169 -0.028060 -0.616099
			 0.897937 -0.041956 -0.438120
			 0.988386  0.009372 -0.151674
			 0.968113 -0.072178 -0.239892
			 0.998277  0.024349  0.053393
			 0.360625 -0.216349 -0.907272
			 0.294167 -0.103776 -0.950103
			 0.078998  0.442027 -0.893517
			 0.007631  0.199346 -0.979900
			 0.183667  0.108664 -0.976964
			 0.230229  0.080461 -0.969805
			 0.150742  0.218603 -0.964100
			 0.199420  0.060298 -0.978057
			 0.499455 -0.089969 -0.861656
			 0.719746  0.003670 -0.694228
			 0.557325  0.110098 -0.822962
			 0.604355 -0.069800 -0.793652
			 0.264345  0.059513 -0.962590
			 0.254361  0.035421 -0.966460
			 0.371217  0.120018 -0.920757
			 0.287526 -0.013656 -0.957675
			-0.272743 -0.172264 -0.946539
			-0.115997 -0.132104 -0.984425
			-0.384831 -0.193909 -0.902388
			-0.350590 -0.223740 -0.909410
			-0.255350 -0.235542 -0.937719
			-0.317603 -0.110862 -0.941721
			-0.375628 -0.145345 -0.915302
			 0.063796 -0.076160 -0.995053
			 0.794713 -0.055231 -0.604468
			 0.987578  0.042063 -0.151393
			 0.971768  0.026570 -0.234438
			-0.058031 -0.265255 -0.962430
			-0.272368 -0.318665 -0.907892
			-0.206853 -0.311771 -0.927368
			-0.175799 -0.358879 -0.916679
			-0.238916 -0.379771 -0.893696
			-0.146965 -0.157391 -0.976539
			-0.227471 -0.093849 -0.969252
			-0.171456 -0.347005 -0.922058
			-0.148131 -0.161969 -0.975614
			-0.116822 -0.255699 -0.959672
			-0.033159 -0.188259 -0.981560
			-0.099042 -0.221434 -0.970133
			-0.008145 -0.236755 -0.971535
			-0.242987 -0.310641 -0.918945
			 0.048404 -0.246034 -0.968052
			-0.217880 -0.356020 -0.908723
			 0.123965 -0.177001 -0.976373
			-0.204353 -0.235476 -0.950153
			-0.158865  0.100891 -0.982132
			 0.158188 -0.064984 -0.985268
			 0.154942 -0.222061 -0.962643
			-0.046656  0.140173 -0.989027
			 0.120298  0.181905 -0.975930
			 0.758378 -0.130210 -0.638677
			 0.971371  0.072658  0.226185
			 0.993233  0.014516  0.115223
			 0.972698  0.038186  0.228910
			 0.995567 -0.027419 -0.089974
			 0.995638  0.013494 -0.092318
			 0.938196  0.080930 -0.336508
			 0.989023  0.126954  0.075609
			 0.872204  0.097405 -0.479347
			 0.993792  0.000773  0.111249
			 0.998573 -0.052415  0.010200
			 0.967080  0.050330  0.249446
			 0.412891  0.121669 -0.902617
			 0.139060  0.518620 -0.843621
			 0.127182  0.773791 -0.620542
			 0.173734  0.769487 -0.614578
			 0.172973  0.511169 -0.841894
			 0.020200  0.788694 -0.614454
			 0.312969  0.412887 -0.855321
			 0.190440  0.220041 -0.956721
			 0.552646  0.101566 -0.827204
			 0.628226  0.153670 -0.762704
			 0.760839  0.209478 -0.614201
			 0.895025  0.268182 -0.356384
			 0.673968  0.215513 -0.706626
			 0.911965  0.049134 -0.407316
			 0.892869  0.195325 -0.405749
			 0.174190  0.067933 -0.982366
			 0.248845  0.094947 -0.963878
			 0.036118 -0.011385 -0.999283
			 0.671769  0.242239 -0.700034
			 0.614621  0.155933 -0.773257
			 0.345983  0.101668 -0.932716
			-0.174990 -0.083254 -0.981044
			-0.303786 -0.310401 -0.900758
			-0.420310 -0.387630 -0.820416
			-0.242119 -0.309396 -0.919594
			-0.396410 -0.077219 -0.914820
			-0.370251 -0.033690 -0.928321
			-0.536198 -0.091143 -0.839157
			-0.612869 -0.142569 -0.777217
			-0.550383 -0.275548 -0.788132
			-0.134400 -0.051144 -0.989606
			 0.989793  0.117671  0.080391
			 0.959318  0.116987  0.256948
			-0.222953 -0.257263 -0.940270
			-0.123404 -0.256944 -0.958515
			-0.217584 -0.218588 -0.951250
			-0.287020 -0.251479 -0.924326
			-0.259773 -0.353515 -0.898635
			-0.481829 -0.317051 -0.816896
			-0.285701 -0.043452 -0.957333
			-0.073118 -0.148967 -0.986135
			-0.226159  0.077668 -0.970989
			-0.219776  0.134337 -0.966257
			-0.330396  0.117261 -0.936530
			-0.228348 -0.169061 -0.958789
			-0.164830 -0.239648 -0.956765
			-0.700647 -0.388992 -0.598146
			-0.607128 -0.362336 -0.707183
			-0.480540 -0.361631 -0.798940
			-0.108048  0.425280 -0.898589
			-0.184188  0.454300 -0.871600
			 0.161347  0.404265 -0.900298
			 0.012282  0.307994 -0.951309
			 0.080671  0.494581 -0.865379
			 0.845462  0.108429  0.522912
			 0.890306  0.076241  0.448934
			 0.898698  0.012843  0.438380
			 0.943283  0.023321  0.331169
			 0.977192  0.053951  0.205391
			 0.986606  0.127410 -0.101859
			 0.946785  0.246778 -0.206638
			 0.925859  0.258148 -0.275942
			 0.904723  0.213459  0.368663
			 0.896637  0.355046  0.264546
			 0.952526  0.301615  0.041519
			 0.973716 -0.030790  0.225674
			 0.919727 -0.020804  0.392007
			 0.875237  0.057635  0.480249
			 0.837583  0.049636  0.544051
			 0.477622  0.349373 -0.806112
			 0.189935  0.806477 -0.559928
			 0.187954  0.851414 -0.489661
			 0.138232  0.955804 -0.259480
			 0.118482  0.724282 -0.679248
			 0.315358  0.948955 -0.005820
			 0.124887  0.779789 -0.613459
			 0.300697  0.808035 -0.506617
			-0.006748  0.653239 -0.757121
			 0.092436  0.944092 -0.316458
			 0.280743  0.702880 -0.653562
			 0.373895  0.557367 -0.741312
			 0.548482  0.469843 -0.691676
			 0.669719  0.360749 -0.649104
			 0.747109  0.424674 -0.511350
			 0.918238  0.393198 -0.047267
			 0.814245  0.578957 -0.042584
			 0.822359  0.541588 -0.174378
			 0.887570  0.240339 -0.393009
			 0.978582  0.159580  0.130046
			 0.993508  0.104145  0.045780
			 0.971790  0.235350 -0.015334
			-0.059137 -0.038540 -0.997506
			-0.018523  0.024985 -0.999516
			 0.300692  0.160046 -0.940197
			 0.231491  0.165525 -0.958652
			 0.119581  0.068666 -0.990447
			-0.089676 -0.038204 -0.995238
			 0.744063  0.212641 -0.633367
			 0.384549  0.212056 -0.898418
			-0.257902 -0.049687 -0.964893
			-0.704485 -0.444949 -0.552921
			-0.821927 -0.369418 -0.433551
			-0.644806 -0.000597 -0.764346
			-0.526377  0.057040 -0.848336
			-0.285448 -0.012271 -0.958316
			-0.762781 -0.161428 -0.626184
			-0.832001 -0.108225 -0.544116
			-0.831676 -0.210731 -0.513719
			-0.894610 -0.321362 -0.310482
			-0.192532  0.042404 -0.980374
			 0.938855  0.134427  0.316988
			-0.536858 -0.308522 -0.785238
			-0.510873 -0.305640 -0.803488
			-0.518006 -0.325378 -0.791075
			-0.681267 -0.317260 -0.659713
			-0.732342 -0.329280 -0.596028
			-0.320111 -0.188171 -0.928504
			-0.426775 -0.300266 -0.853055
			-0.457429 -0.330761 -0.825443
			-0.652193 -0.298744 -0.696704
			-0.601269 -0.268002 -0.752762
			-0.206045  0.086374 -0.974723
			-0.327000  0.395713 -0.858186
			-0.340691  0.346763 -0.873891
			-0.418187  0.062349 -0.906219
			-0.865689 -0.420122 -0.272176
			-0.927561 -0.362009 -0.092629
			-0.896051 -0.338912 -0.286761
			-0.867327 -0.370410 -0.332474
			-0.763872 -0.388786 -0.515116
			-0.255603  0.674667 -0.692453
			 0.724058  0.102394  0.682096
			 0.851426  0.142994  0.504606
			 0.686101  0.078231  0.723287
			 0.614774  0.080202  0.784615
			 0.692234  0.119063  0.711784
			 0.675265  0.125044  0.726899
			 0.689510  0.124676  0.713465
			 0.811665  0.024278  0.583618
			 0.947357  0.037706  0.317951
			 0.839978  0.130586  0.526672
			 0.826911  0.336976  0.450184
			 0.855790  0.449020  0.256913
			 0.921964  0.007933  0.387193
			 0.770407  0.055903  0.635097
			 0.937235  0.023028  0.347937
			 0.639498  0.027760  0.768291
			 0.687689  0.096035  0.719626
			 0.685225  0.074539  0.724507
			 0.633045  0.062532  0.771585
			 0.111076  0.991064 -0.073849
			 0.254695  0.907690 -0.333512
			 0.099937  0.954287  0.281691
			 0.067681  0.995724  0.062877
			-0.117289  0.761881 -0.637010
			 0.084286  0.908264  0.409819
			 0.369334  0.859808  0.352593
			 0.342105  0.869259  0.356865
			 0.125606  0.920261  0.370599
			 0.224634  0.918272 -0.326062
			 0.275365  0.954991  0.110298
			-0.049225  0.917283 -0.395182
			 0.360464  0.795430 -0.487193
			 0.544391  0.703858 -0.456314
			 0.730062  0.570004 -0.376968
			 0.773911  0.620354  0.127367
			 0.627447  0.775284  0.072431
			 0.642865  0.755793 -0.124508
			 0.966562  0.239868 -0.090674
			 0.883071  0.154749  0.442987
			 0.909225  0.177488  0.376575
			-0.046242  0.046297 -0.997857
			 0.054771  0.105702 -0.992888
			-0.075876  0.112416 -0.990760
			 0.177563  0.238827 -0.954690
			 0.728685  0.301520 -0.614901
			 0.960370  0.277989  0.020269
			 0.397448  0.276533 -0.874965
			-0.934229 -0.356670 -0.001670
			-0.877102 -0.442073 -0.187783
			-0.949291 -0.312121 -0.037785
			-0.941317 -0.332863 -0.055900
			-0.938930 -0.016887 -0.343694
			-0.396561  0.121423 -0.909943
			-0.871286  0.069588 -0.485817
			-0.915686 -0.192209 -0.352952
			-0.987916 -0.103311 -0.115535
			-0.979471 -0.178011 -0.094600
			-0.956650 -0.242078 -0.161925
			-0.951502 -0.243801  0.187629
			-0.157368  0.194353 -0.968226
			-0.227005  0.173081 -0.958390
			-0.843358 -0.320602 -0.431233
			-0.853366 -0.337630 -0.397206
			-0.815173 -0.337253 -0.470906
			-0.869694 -0.352044 -0.345973
			-0.944521 -0.227686 -0.236725
			-0.882303 -0.296949 -0.365188
			-0.917289 -0.326802 -0.227555
			-0.795872 -0.252427 -0.550334
			-0.544563 -0.146915 -0.825752
			-0.747987 -0.111965 -0.654201
			-0.324456  0.194432 -0.925702
			-0.320524  0.403645 -0.856934
			-0.384550  0.544882 -0.745134
			-0.433777  0.620772 -0.653055
			-0.442654  0.526127 -0.726118
			-0.578291  0.130590 -0.805311
			-0.662419  0.030402 -0.748517
			-0.371778  0.423982 -0.825845
			-0.500733  0.265403 -0.823910
			-0.933136 -0.350842  0.078529
			-0.914047 -0.280706  0.292785
			-0.934473 -0.334598 -0.121675
			-0.924144 -0.322682  0.204533
			-0.354882  0.767591 -0.533726
			-0.392474  0.714472 -0.579219
			 0.729498  0.089538  0.678098
			 0.522042  0.092196  0.847922
			 0.532798  0.110960  0.838936
			 0.680379  0.101476  0.725801
			 0.341807  0.104097  0.933987
			 0.495284  0.089963  0.864060
			 0.450848  0.075104  0.889436
			 0.470473  0.116089  0.874745
			 0.940903 -0.000460  0.338677
			 0.882901  0.043925  0.467501
			 0.857855  0.092968  0.505412
			 0.773868  0.110060  0.623710
			 0.817122  0.057178  0.573622
			 0.755026  0.162411  0.635263
			 0.852406  0.383308  0.355638
			 0.791757  0.391698  0.468714
			 0.761775  0.628001  0.159101
			 0.754821  0.641721  0.135789
			 0.976315  0.014754  0.215852
			 0.962960  0.053270  0.264331
			 0.575164  0.045306  0.816783
			 0.673615  0.033479  0.738324
			 0.682593  0.039512  0.729729
			 0.561083  0.002999  0.827754
			 0.585824  0.043233  0.809284
			 0.581009 -0.002857  0.813892
			 0.669381  0.007864  0.742878
			 0.590407  0.062071  0.804715
			 0.290813  0.954852 -0.060699
			-0.035698  0.944677  0.326054
			 0.143411  0.985909  0.086116
			-0.341547  0.887261 -0.310022
			 0.256490  0.903322  0.343836
			 0.081376  0.879752  0.468416
			 0.188361  0.970461  0.150748
			 0.048137  0.972486  0.227935
			-0.118811  0.935809  0.331881
			-0.075533  0.995375  0.059367
			 0.389995  0.895731 -0.213471
			 0.506432  0.858600 -0.079574
			 0.702897  0.701022  0.120427
			 0.474351  0.880266 -0.011118
			 0.480272  0.875720  0.049536
			 0.955261  0.152512  0.253409
			 0.724160  0.100073  0.682333
			 0.862779  0.163412  0.478444
			 0.779384  0.155941  0.606831
			 0.739117  0.126223  0.661645
			-0.076249  0.131379 -0.988395
			-0.039145  0.093224 -0.994875
			-0.050443  0.210915 -0.976202
			 0.583530  0.390136 -0.712240
			 0.325846  0.361482 -0.873588
			 0.173550  0.225762 -0.958599
			-0.011520  0.207334 -0.978202
			 0.189613  0.261933 -0.946276
			 0.927032  0.365046 -0.085753
			 0.841874  0.342992  0.416658
			 0.751757  0.238327  0.614868
			-0.944589 -0.316635  0.086572
			-0.910346 -0.229221  0.344568
			-0.950139 -0.268683  0.158255
			-0.995206  0.025533 -0.094411
			-0.986771 -0.152226  0.055776
			-0.992162 -0.019889  0.123366
			-0.942033 -0.136723  0.306398
			-0.422632  0.203637 -0.883127
			-0.990869  0.064532  0.118385
			-0.833009  0.151579 -0.532091
			-0.975371  0.029808  0.218548
			-0.981723 -0.182047  0.055494
			-0.944528 -0.134722  0.299528
			-0.909681 -0.169868  0.378979
			-0.889941 -0.143879  0.432786
			-0.828343 -0.201540  0.522713
			-0.228498  0.263114 -0.937315
			-0.931715 -0.360697 -0.042481
			-0.944655 -0.327551 -0.018353
			-0.979011 -0.087147 -0.184238
			-0.989474 -0.142850  0.023157
			-0.996827  0.053293  0.059129
			-0.931657 -0.310453  0.188773
			-0.915325 -0.080903 -0.394507
			-0.868359  0.081109 -0.489259
			-0.391435  0.701909 -0.595066
			-0.483700  0.822243 -0.299916
			-0.470299  0.816691 -0.334418
			-0.705562  0.273643 -0.653683
			-0.369249  0.546535 -0.751635
			-0.207625  0.717690 -0.664690
			-0.514745  0.456971 -0.725407
			-0.858128 -0.269688  0.436903
			-0.844744 -0.188912  0.500719
			-0.885181 -0.228321  0.405370
			-0.743620 -0.157589  0.649765
			-0.807003 -0.196473  0.556906
			-0.923872 -0.300327  0.237202
			-0.842211 -0.296792  0.450105
			-0.443614  0.839669 -0.313309
			 0.587268  0.088151  0.804578
			 0.946267  0.036272  0.321345
			 0.883591  0.027043  0.467478
			 0.384449  0.088598  0.918885
			 0.441274  0.090454  0.892802
			 0.509033  0.064680  0.858313
			 0.418089  0.087912  0.904142
			 0.141643  0.092652  0.985572
			 0.180829  0.090725  0.979321
			 0.348773  0.079428  0.933835
			 0.075393  0.063793  0.995111
			 0.208035  0.036742  0.977431
			 0.169338  0.089168  0.981516
			 0.278229  0.110872  0.954094
			 0.192321  0.046476  0.980231
			 0.274035  0.037254  0.960998
			 0.217729  0.046981  0.974878
			 0.631213  0.052058  0.773860
			 0.660007  0.116431  0.742182
			 0.698634  0.230673  0.677274
			 0.701965  0.342105  0.624668
			 0.825258  0.436498  0.358357
			 0.663641  0.715557  0.218079
			 0.597235  0.652032  0.467081
			 0.690560  0.721772  0.046612
			 0.549945  0.833071 -0.059606
			 0.281095  0.959372  0.024287
			 0.349019  0.922355 -0.165674
			 0.932452  0.019601  0.360762
			 0.420370 -0.021871  0.907089
			 0.387623  0.042589  0.920834
			 0.584758  0.070120  0.808172
			-0.196991  0.951616  0.235843
			 0.548561  0.833340 -0.068012
			-0.337546  0.935458  0.104792
			-0.472356  0.857777  0.202728
			 0.177246  0.982588  0.055720
			 0.069757  0.997343  0.021016
			-0.012295  0.904905  0.425437
			-0.367417  0.861377  0.350763
			-0.297015  0.858477  0.418090
			 0.119445  0.992672  0.018328
			-0.104314  0.986598  0.125472
			 0.417617  0.883683 -0.211423
			 0.508573  0.056799  0.859143
			 0.744163  0.166118  0.647013
			 0.671053  0.116409  0.732214
			-0.179466  0.180247 -0.967110
			 0.003236  0.168236 -0.985742
			-0.106588  0.140975 -0.984259
			 0.047772  0.178210 -0.982832
			-0.126224  0.289024 -0.948964
			 0.166224  0.203835 -0.964791
			-0.039115  0.321406 -0.946133
			 0.702311  0.352893 -0.618244
			 0.866106  0.377770 -0.327337
			 0.544570  0.373724 -0.750849
			 0.375360  0.427274 -0.822522
			 0.099887  0.360773 -0.927289
			-0.127132  0.205497 -0.970365
			 0.917419  0.295328  0.266692
			 0.960297  0.213740  0.179288
			 0.618811  0.306306  0.723360
			 0.845070  0.210402  0.491515
			 0.520533  0.313773  0.794098
			 0.587361  0.226081  0.777106
			 0.606354  0.123411  0.785560
			-0.754004 -0.169871  0.634525
			-0.869413 -0.102132  0.483414
			-0.779774 -0.108345  0.616614
			-0.795999 -0.140681  0.588722
			-0.542665  0.258285 -0.799252
			-0.958461  0.115763 -0.260676
			-0.992455  0.044411 -0.114287
			-0.989795 -0.051737  0.132775
			-0.926517 -0.104845  0.361351
			-0.882177  0.057406  0.467405
			-0.914551  0.089205  0.394512
			-0.888319  0.008761 -0.459143
			-0.846772 -0.000754  0.531956
			-0.761873 -0.147767  0.630645
			-0.779393 -0.150257  0.608251
			-0.725847 -0.143026  0.672822
			-0.677967 -0.158651  0.717768
			-0.700376 -0.154201  0.696919
			-0.227460  0.326639 -0.917371
			-0.928020 -0.340964  0.150077
			-0.889560 -0.344348  0.300179
			-0.909039 -0.351235  0.224237
			-0.969672  0.203931  0.134714
			-0.978998  0.155994  0.131258
			-0.984602  0.124986 -0.122221
			-0.926728 -0.107546  0.360013
			-0.958141  0.076451  0.275900
			-0.923145  0.206384  0.324361
			-0.829982 -0.226480  0.509741
			-0.896460  0.418912 -0.144471
			-0.841490  0.430813 -0.326030
			-0.780504  0.335741 -0.527343
			-0.348644  0.932541 -0.093885
			-0.333838  0.903479 -0.268846
			-0.420927  0.902191  0.094193
			-0.599042  0.620364 -0.506259
			-0.628597  0.710501 -0.316313
			-0.342012  0.732114 -0.589098
			-0.765943 -0.221154  0.603674
			-0.771019 -0.160103  0.616358
			-0.662944 -0.111631  0.740300
			-0.687331 -0.142102  0.712309
			-0.529858 -0.077663  0.844523
			-0.499898 -0.092208  0.861162
			-0.884098 -0.299886  0.358384
			-0.891447 -0.321836  0.318973
			-0.715746 -0.237009  0.656913
			-0.718657 -0.267297  0.641938
			-0.845810 -0.319188  0.427463
			 0.320450  0.043891  0.946248
			 0.265305  0.027489  0.963773
			 0.347616  0.032731  0.937066
			 0.023756  0.051152  0.998408
			-0.062466  0.049387  0.996825
			 0.222868  0.074237  0.972018
			 0.075718  0.010122  0.997078
			-0.064921 -0.035322  0.997265
			-0.166713 -0.027259  0.985629
			 0.179628 -0.037872  0.983005
			 0.066512  0.043326  0.996845
			 0.003701 -0.007950  0.999962
			-0.065109  0.002027  0.997876
			 0.032382 -0.013131  0.999389
			 0.645479  0.230800  0.728071
			 0.545247  0.316949  0.776047
			 0.606489  0.453273  0.653235
			 0.341598  0.939846  0.000074
			 0.500495  0.553863  0.665388
			 0.290552  0.946584  0.139852
			-0.150780  0.985609 -0.076429
			 0.019625  0.975171 -0.220580
			 0.382923  0.001532  0.923779
			 0.258893 -0.049059  0.964660
			 0.447032  0.145614  0.882587
			-0.457110  0.757648  0.465853
			-0.380718  0.803587  0.457495
			-0.454624  0.788025  0.415132
			 0.175786  0.984246  0.018952
			 0.201448  0.978296 -0.048533
			 0.323105  0.932291 -0.162594
			 0.444309  0.893694 -0.062449
			-0.241879  0.962697  0.121281
			-0.337756  0.936326 -0.095990
			-0.196592  0.947661  0.251574
			-0.215409  0.872284 -0.438999
			 0.226148  0.902626 -0.366227
			-0.428304  0.810164  0.400238
			-0.501624  0.764641  0.404596
			-0.420695  0.888282  0.184310
			-0.419059  0.901796  0.105613
			-0.067398  0.987357 -0.143473
			 0.168985  0.977189 -0.128629
			 0.552617  0.048601  0.832017
			 0.200626 -0.000914  0.979668
			 0.305821 -0.011807  0.952016
			 0.354446  0.017482  0.934913
			-0.174949  0.145785 -0.973725
			-0.167649  0.127977 -0.977505
			 0.046646  0.113255 -0.992470
			-0.113392  0.057530 -0.991883
			 0.233261 -0.012386 -0.972335
			 0.112176  0.081507 -0.990340
			 0.017194  0.296949 -0.954739
			 0.047912  0.364728 -0.929881
			-0.215232  0.377756 -0.900542
			-0.297584  0.348073 -0.888982
			 0.767721  0.323693 -0.553016
			 0.912470  0.310317 -0.266651
			 0.923557  0.314126 -0.219924
			 0.950192  0.296762 -0.095222
			 0.636682  0.405338 -0.656001
			 0.383224  0.257321 -0.887088
			 0.237186  0.449879 -0.861018
			 0.638884  0.330195 -0.694837
			 0.018000  0.282979 -0.958957
			-0.098963  0.266010 -0.958877
			-0.129391 -0.016495 -0.991456
			 0.939817  0.063804  0.335667
			 0.940797  0.137748  0.309719
			 0.857037  0.104405  0.504567
			 0.984150  0.177332  0.001399
			 0.545450  0.142281  0.825978
			 0.452494  0.237391  0.859590
			 0.380339  0.128702  0.915848
			-0.591207 -0.088958  0.801599
			-0.619121 -0.103958  0.778384
			-0.742549 -0.052320  0.667745
			-0.706229 -0.117026  0.698245
			-0.502842  0.230753 -0.833009
			-0.654179  0.136083 -0.743997
			-0.956834  0.004619 -0.290597
			-0.983946 -0.157830 -0.083309
			-0.920851 -0.186592  0.342369
			-0.962515 -0.173237  0.208694
			-0.895409 -0.216139  0.389265
			-0.855442 -0.085209  0.510840
			-0.678472  0.102453  0.727447
			-0.687814  0.156642  0.708784
			-0.828863  0.110599  0.548410
			-0.821308 -0.065914 -0.566664
			-0.946245 -0.151905 -0.285561
			-0.961704 -0.222468 -0.160104
			-0.718201  0.073924  0.691898
			-0.664699 -0.116224  0.738016
			-0.568334 -0.068218  0.819965
			-0.554488 -0.105414  0.825488
			-0.510675 -0.106994  0.853091
			-0.490780 -0.112665  0.863969
			-0.548583 -0.114642  0.828199
			-0.802492 -0.305170  0.512716
			-0.948957  0.175710  0.261928
			-0.864653  0.476798  0.158236
			-0.949837  0.286382  0.125679
			-0.940750  0.264538  0.212152
			-0.851875  0.519501  0.066544
			-0.778867 -0.019217  0.626895
			-0.878724  0.103275  0.466024
			-0.935735  0.134669  0.325981
			-0.673248 -0.182679  0.716496
			-0.608687  0.792244  0.043010
			-0.721824  0.690431 -0.047695
			-0.328283  0.793720  0.512093
			-0.226555  0.947296  0.226501
			-0.162801  0.965532  0.203087
			-0.639269 -0.165667  0.750926
			-0.458225 -0.055249  0.887117
			-0.365005 -0.056581  0.929285
			-0.365531 -0.067367  0.928358
			-0.361162 -0.034373  0.931869
			-0.514058 -0.159786  0.842741
			-0.355597 -0.139273  0.924204
			-0.492837 -0.157197  0.855804
			-0.555647 -0.162737  0.815337
			-0.559118 -0.174702  0.810473
			-0.534945 -0.185045  0.824374
			-0.111975  0.022045  0.993467
			-0.208862 -0.003624  0.977938
			-0.204101  0.026927  0.978579
			-0.269398 -0.029336  0.962582
			 0.019308 -0.082205  0.996428
			-0.119186 -0.132454  0.983997
			 0.133482 -0.111443  0.984765
			-0.172941  0.002905  0.984928
			-0.292539 -0.064821  0.954054
			-0.252034 -0.050435  0.966403
			-0.276449 -0.021918  0.960778
			-0.048593 -0.015813  0.998694
			 0.324413  0.262372  0.908800
			 0.331394  0.431337  0.839122
			 0.377514  0.877067  0.297046
			 0.358087  0.574359  0.736129
			 0.394823  0.698151  0.597244
			 0.454079  0.711796  0.535872
			-0.169401  0.956557 -0.237281
			 0.190502  0.979445 -0.066312
			 0.071902  0.921432 -0.381829
			 0.290932  0.083599  0.953085
			 0.126171 -0.130878  0.983337
			 0.149632 -0.000871  0.988741
			-0.318635  0.765082  0.559573
			 0.783486  0.620110 -0.040180
			 0.450697  0.871409 -0.193697
			 0.897082  0.438167 -0.057038
			 0.493342  0.838609 -0.230972
			-0.266926  0.963513  0.019826
			-0.261745  0.939556 -0.220734
			-0.382934  0.836788 -0.391341
			 0.006954  0.772260 -0.635268
			-0.287081  0.716068 -0.636264
			-0.403546  0.703198 -0.585374
			 0.276909  0.803208 -0.527426
			 0.331615  0.843843 -0.421854
			-0.191000  0.938482  0.287700
			-0.118617  0.957693 -0.262211
			 0.189158  0.917531 -0.349793
			-0.014715 -0.046180  0.998825
			 0.094129 -0.067356  0.993279
			 0.247827 -0.027363  0.968418
			 0.142857 -0.022962  0.989477
			 0.060379 -0.084137  0.994623
			 0.063308 -0.098667  0.993105
			 0.066639 -0.059741 -0.995987
			-0.037727 -0.178547 -0.983208
			 0.309070 -0.124473 -0.942859
			 0.246809 -0.265370 -0.932022
			 0.111674 -0.109227 -0.987724
			-0.296533  0.112108 -0.948420
			-0.252825  0.249139 -0.934885
			 0.855591  0.163560 -0.491133
			 0.913354  0.247073 -0.323634
			 0.134142  0.111769 -0.984639
			 0.597556  0.079330 -0.797893
			 0.262784 -0.057472 -0.963141
			 0.007522 -0.152543 -0.988268
			-0.085412 -0.325659 -0.941621
			 0.855537  0.096208  0.508724
			 0.785366  0.055418  0.616546
			 0.993571 -0.106129  0.039410
			 0.989761  0.061705  0.128707
			 0.954434 -0.005542  0.298369
			 0.976843 -0.092822  0.192774
			 0.914777  0.145287  0.376928
			 0.980527 -0.009690  0.196143
			 0.958380 -0.004159 -0.285465
			 0.586197  0.002864  0.810164
			 0.259115 -0.030001  0.965380
			 0.241553  0.082652  0.966861
			 0.236229  0.112369  0.965178
			 0.200440  0.090984  0.975472
			-0.534079 -0.073197  0.842260
			-0.399136 -0.050984  0.915473
			-0.625370  0.074450 -0.776769
			-0.935502 -0.346315  0.070014
			-0.925329 -0.319004  0.204946
			-0.882181 -0.315371  0.349711
			-0.834274 -0.266483  0.482673
			-0.687843 -0.098410  0.719157
			-0.346311  0.132938  0.928653
			-0.481451  0.015960  0.876328
			-0.420578  0.096805  0.902077
			-0.867503 -0.370093 -0.332371
			-0.692930 -0.133917 -0.708459
			-0.768399 -0.353427 -0.533529
			-0.924570 -0.378043  0.047475
			-0.455634 -0.139413  0.879182
			-0.214633 -0.015814  0.976567
			-0.225246 -0.132426  0.965260
			-0.336983 -0.075870  0.938449
			 0.149500  0.324915  0.933852
			-0.753689  0.645523  0.123501
			-0.866907  0.460337  0.191212
			-0.646778  0.759033  0.074473
			 0.991903  0.108682  0.065702
			-0.607710 -0.124624  0.784320
			-0.825083 -0.010661  0.564911
			-0.828707  0.071596  0.555084
			-0.892544  0.081958  0.443451
			-0.271317  0.772162  0.574589
			-0.166063  0.895593  0.412718
			 0.026544  0.994973  0.096560
			-0.000621  0.996472  0.083920
			-0.311779 -0.017287  0.949998
			-0.295481 -0.029983  0.954878
			-0.452896 -0.182953  0.872590