<?xml version="1.0"?>
<VTKFile type="PolyData" version="0.1" byte_order="LittleEndian" compressor="vtkZLibDataCompressor">
	<PolyData>
		<Piece NumberOfPoints="2838" NumberOfVerts="0" NumberOfLines="0" NumberOfStrips="0" NumberOfPolys="5672">
		<PointData Normals="Normals">
		<DataArray type="Float32" Name="Normals" NumberOfComponents="3" format="ascii">
			-0.356875 -0.135886  0.924216
			-0.497648 -0.146700  0.854883
			-0.436763 -0.262239  0.860505
			-0.206405 -0.264328  0.942087
			-0.556347 -0.096879  0.825283
			-0.042172 -0.177204  0.983270
			-0.189655 -0.038687  0.981088
			-0.291997  0.001307  0.956418
			-0.634018 -0.113110  0.765002
			-0.184849 -0.402070  0.896756
			-0.471011 -0.333348  0.816718
			-0.619190 -0.207997  0.757193
			 0.011626 -0.331142  0.943509
			-0.787451 -0.104796  0.607403
			-0.676335 -0.160877  0.718811
			-0.777446 -0.223067  0.588064
			-0.463736 -0.053242  0.884372
			 0.139827 -0.077113  0.987169
			 0.225763 -0.257605  0.939505
			 0.195184 -0.170799  0.965780
			-0.005296  0.052497  0.998607
			-0.030717  0.080114  0.996312
			-0.167783  0.066392  0.983586
			-0.278639  0.028309  0.959979
			-0.804535 -0.096688  0.585983
			-0.116808 -0.500775  0.857660
			 0.086929 -0.463490  0.881828
			-0.407161 -0.429055  0.806307
			-0.559901 -0.280199  0.779743
			-0.660685 -0.210980  0.720404
			-0.737619 -0.186722  0.648885
			 0.248131 -0.384636  0.889093
			-0.883522 -0.197519  0.424706
			-0.731927 -0.203098  0.650411
			-0.601498 -0.080095  0.794849
			-0.823906 -0.285252  0.489704
			-0.801770 -0.193614  0.565401
			-0.366198  0.036711  0.929813
			 0.335338 -0.178280  0.925076
			 0.174620  0.022107  0.984388
			 0.354625 -0.144226  0.923818
			 0.400583 -0.299808  0.865823
			 0.036444 -0.008344  0.999301
			-0.023426  0.036727  0.999051
			-0.193019  0.000609  0.981195
			-0.487877 -0.011768  0.872833
			-0.857621 -0.058071  0.510994
			-0.921190 -0.048004  0.386140
			 0.829846 -0.342903  0.440196
			 0.266361 -0.563584  0.781937
			-0.003276 -0.529447  0.848336
			 0.297090 -0.449091  0.842648
			-0.414606 -0.476321  0.775384
			-0.574637 -0.390947  0.718994
			-0.655595 -0.384798  0.649712
			-0.880220 -0.218213  0.421420
			-0.909946 -0.086727  0.405557
			-0.909371 -0.115767  0.399552
			-0.875721 -0.322762  0.359079
			-0.830998 -0.309346  0.462329
			-0.882501 -0.202501  0.424482
			-0.716017 -0.129287  0.686006
			-0.588032  0.007916  0.808799
			-0.857498 -0.297492  0.419757
			-0.753716 -0.084967  0.651684
			-0.743017 -0.045431  0.667729
			-0.750047 -0.016487  0.661179
			-0.808275 -0.123540  0.575700
			 0.253215 -0.157546  0.954495
			 0.297865 -0.492962  0.817475
			 0.199292 -0.387025  0.900275
			-0.032206 -0.109567  0.993457
			-0.056548 -0.020527  0.998189
			-0.119468 -0.032102  0.992319
			-0.038251 -0.034153  0.998684
			-0.050492 -0.029938  0.998276
			-0.075074 -0.045505  0.996139
			-0.104226 -0.044379  0.993563
			-0.312461 -0.042149  0.948995
			-0.618383  0.051221  0.784206
			-0.534818 -0.109644  0.837823
			-0.697255 -0.109712  0.708378
			-0.708754 -0.118124  0.695495
			-0.680362  0.002464  0.732872
			 0.842283 -0.313676  0.438369
			 0.701474 -0.419873  0.575883
			 0.225712 -0.686019  0.691688
			 0.139754 -0.580350  0.802286
			 0.320279 -0.577813  0.750702
			-0.151894 -0.612561  0.775691
			-0.251059 -0.655196  0.712522
			-0.445463 -0.575591  0.685753
			-0.688757 -0.437087  0.578419
			-0.840023 -0.392469  0.374605
			-0.900763 -0.215600  0.377018
			-0.902588 -0.260465  0.342773
			-0.854127 -0.077418  0.514270
			-0.863521 -0.123673  0.488914
			-0.855131 -0.321711  0.406513
			-0.827554 -0.144731  0.542408
			-0.827680 -0.227880  0.512851
			-0.711280 -0.034660  0.702054
			-0.679832  0.020098  0.733093
			-0.915202 -0.216898  0.339647
			-0.831217 -0.136221  0.539001
			-0.856482  0.020053  0.515787
			-0.781142  0.023136  0.623925
			 0.144860 -0.360304  0.921519
			-0.025860 -0.314731  0.948829
			 0.376946 -0.703004  0.603073
			 0.318199 -0.631494  0.707082
			 0.222097 -0.671147  0.707273
			 0.179301 -0.599167  0.780288
			 0.082145 -0.606860  0.790553
			 0.074648 -0.438344  0.895702
			-0.127317 -0.414830  0.900948
			-0.128954 -0.022379  0.991398
			-0.239016 -0.229259  0.943564
			-0.061400  0.028889  0.997695
			 0.098947  0.054333  0.993608
			 0.068427  0.035620  0.997020
			-0.192970 -0.078002  0.978099
			-0.077960 -0.000147  0.996957
			-0.027143 -0.049140  0.998423
			-0.165248 -0.068232  0.983889
			-0.093958 -0.073850  0.992833
			-0.041513 -0.064078  0.997081
			-0.124679 -0.052259  0.990820
			-0.294779 -0.103696  0.949923
			-0.425347 -0.095812  0.899945
			-0.543613 -0.086594  0.834857
			-0.770366 -0.127956  0.624631
			-0.821633 -0.153732  0.548896
			-0.800424 -0.073537  0.594906
			-0.777137 -0.125448  0.616702
			-0.821860 -0.143313  0.551368
			-0.840437 -0.127737  0.526640
			-0.633115 -0.080571  0.769853
			-0.698171 -0.096123  0.709449
			 0.353457 -0.556993  0.751550
			 0.036590 -0.738652  0.673094
			 0.231282 -0.817833  0.526932
			-0.039957 -0.785774  0.617221
			-0.211945 -0.755407  0.620032
			-0.409484 -0.675865  0.612804
			-0.667134 -0.540873  0.512239
			-0.698429 -0.677492  0.230653
			-0.861213 -0.441124  0.252433
			-0.764339 -0.537052  0.356877
			-0.665917 -0.631274  0.397552
			-0.861148 -0.287523  0.419231
			-0.834838 -0.486985  0.256694
			-0.818916 -0.115556  0.562160
			-0.866227 -0.085685  0.492249
			-0.903487 -0.158662  0.398168
			-0.830357 -0.308854  0.463806
			-0.838059 -0.273595  0.472020
			-0.883725 -0.224960  0.410393
			-0.856702 -0.293188  0.424385
			-0.911425 -0.187708  0.366156
			-0.956391 -0.160844  0.243815
			-0.902777 -0.052827  0.426853
			-0.963400 -0.007797  0.267954
			-0.972119 -0.087369  0.217604
			-0.874560  0.001472  0.484915
			-0.953484 -0.003186  0.301428
			 0.438341 -0.785000  0.437758
			 0.388028 -0.740593  0.548595
			 0.245174 -0.744770  0.620651
			 0.156615 -0.853048  0.497776
			-0.050675 -0.603925  0.795429
			-0.222372 -0.504611  0.834217
			-0.290977 -0.353768  0.888921
			-0.040161  0.030294  0.998734
			-0.169042 -0.137033  0.976036
			 0.002803  0.032325  0.999474
			 0.249170  0.043695  0.967473
			 0.506286  0.025680  0.861983
			 0.269961  0.060864  0.960946
			 0.214800  0.109086  0.970547
			 0.191879  0.080249  0.978132
			 0.041805  0.002755  0.999122
			 0.025241 -0.030650  0.999211
			-0.117257 -0.104558  0.987582
			-0.228906 -0.094952  0.968807
			-0.253570 -0.063426  0.965236
			-0.406093 -0.080644  0.910267
			-0.470761 -0.071970  0.879320
			-0.915516 -0.127888  0.381411
			-0.899381 -0.189612  0.393904
			-0.721145 -0.089081  0.687033
			-0.840777 -0.098879  0.532275
			-0.819609 -0.134361  0.556945
			-0.905211 -0.149995  0.397611
			-0.815329 -0.101723  0.569992
			-0.677091 -0.074406  0.732128
			-0.620618 -0.061418  0.781704
			-0.626993 -0.062469  0.776517
			 0.239871 -0.878752  0.412622
			-0.017101 -0.855092  0.518194
			-0.367546 -0.805195  0.465372
			-0.124406 -0.867836  0.481023
			-0.515169 -0.673480  0.530118
			-0.720853 -0.686747  0.093533
			-0.420300 -0.907018  0.025820
			-0.369875 -0.912206  0.176275
			-0.400930 -0.882129  0.247192
			-0.638202 -0.695085  0.330991
			-0.601166 -0.798933  0.017522
			-0.698955 -0.712172  0.065361
			-0.422458 -0.857687  0.293091
			-0.797880 -0.518784  0.307002
			-0.642191 -0.765582  0.038406
			-0.834786 -0.376112  0.402084
			-0.831768 -0.183381  0.523959
			-0.891815 -0.262033  0.368787
			-0.925379 -0.318524  0.205465
			-0.922308 -0.386426  0.004805
			-0.944401 -0.267951  0.190548
			-0.751917 -0.618396  0.228488
			-0.941991 -0.187695  0.278252
			-0.963319 -0.213361  0.162769
			-0.987617 -0.139612 -0.071566
			-0.965333 -0.247155  0.083939
			-0.969073 -0.226015  0.099069
			-0.999259  0.028396  0.025993
			-0.997235 -0.012661  0.073229
			-0.997969  0.018615  0.060925
			-0.998857  0.041750 -0.023281
			-0.980551 -0.053925  0.188709
			 0.449458 -0.886238  0.112114
			 0.428724 -0.820104  0.378979
			 0.098522 -0.934374  0.342401
			 0.397966 -0.914685  0.070532
			 0.019515 -0.955284  0.295044
			-0.020843 -0.896298  0.442963
			-0.055594 -0.801255  0.595735
			-0.151681 -0.641992  0.751558
			-0.218266 -0.434359  0.873895
			-0.231869 -0.676550  0.698940
			-0.227943 -0.593108  0.772182
			-0.232801 -0.262152  0.936525
			-0.105380 -0.303395  0.947020
			 0.106421 -0.002295  0.994318
			 0.013847 -0.154538  0.987890
			 0.180446 -0.132119  0.974671
			 0.355640 -0.056888  0.932890
			 0.500111  0.005377  0.865944
			 0.620403 -0.021748  0.783981
			 0.969763  0.001417  0.244045
			 0.923872 -0.007215  0.382634
			 0.515019  0.061650  0.854959
			 0.426284  0.116311  0.897080
			 0.424852  0.163042  0.890460
			 0.203796  0.029082  0.978581
			 0.450565  0.127118  0.883647
			 0.066730 -0.034431  0.997177
			-0.016871 -0.036933  0.999175
			-0.078916 -0.048323  0.995709
			-0.083332 -0.052433  0.995142
			-0.375479 -0.075466  0.923753
			-0.185977 -0.049272  0.981318
			-0.396128 -0.054560  0.916573
			 0.086008 -0.000307  0.996294
			-0.907408 -0.196975  0.371229
			-0.986477 -0.119506  0.112170
			-0.974099 -0.225939  0.009075
			-0.987994 -0.144024  0.055895
			-0.886840 -0.196269  0.418323
			-0.950548 -0.260726  0.168761
			-0.611235 -0.049748  0.789884
			-0.715338 -0.066947  0.695564
			-0.913500 -0.081290  0.398635
			-0.880390 -0.139655  0.453221
			-0.924512 -0.039806  0.379068
			-0.866466 -0.123508  0.483717
			-0.899263 -0.186787  0.395521
			-0.963305 -0.148404  0.223650
			-0.536966 -0.040339  0.842639
			-0.333479 -0.028230  0.942335
			 0.033122 -0.964294  0.262753
			 0.306593 -0.950851  0.043400
			-0.152376 -0.944230  0.291910
			-0.194144 -0.974418  0.113218
			-0.143162 -0.985614 -0.089832
			-0.123021 -0.989735  0.072735
			-0.402661 -0.906164 -0.129350
			-0.552769 -0.831394 -0.056841
			-0.154604 -0.971706  0.178562
			-0.144843 -0.966394  0.212373
			-0.606489 -0.792732 -0.061205
			-0.425088 -0.859512 -0.283796
			-0.743794 -0.660722  0.101085
			-0.841523 -0.513973  0.166346
			-0.891359 -0.333100  0.307447
			-0.881208 -0.469310  0.056753
			-0.865893 -0.489646 -0.102351
			-0.927857 -0.356353 -0.109975
			-0.816006 -0.474591 -0.329996
			-0.999235 -0.036371  0.014399
			-0.987942 -0.087867  0.127477
			-0.961646 -0.228834 -0.151237
			-0.901568  0.071144 -0.426747
			-0.903498 -0.111809 -0.413750
			-0.961000  0.073505 -0.266602
			-0.920557 -0.303842 -0.245469
			-0.989227  0.126941 -0.072911
			-0.940487  0.264331 -0.213573
			-0.972341  0.119846 -0.200475
			-0.894144  0.249666 -0.371717
			-0.926456  0.023313 -0.375681
			-0.958942  0.064110 -0.276262
			-0.914157  0.139347 -0.380657
			-0.979198 -0.038448 -0.199232
			 0.500344 -0.856897 -0.124029
			 0.492513 -0.829240 -0.264181
			 0.376526 -0.921403 -0.096152
			 0.230722 -0.956643  0.177767
			 0.270518 -0.956336 -0.110641
			 0.437858 -0.848052 -0.298475
			 0.062351 -0.996585  0.054135
			-0.177185 -0.945221  0.274159
			-0.212568 -0.974970 -0.065185
			-0.137973 -0.793484  0.592745
			 0.079390 -0.283123  0.955792
			-0.094030 -0.464311  0.880667
			-0.009645 -0.688096  0.725556
			-0.061659 -0.771894  0.632754
			 0.038076 -0.569491  0.821115
			 0.197968 -0.226460  0.953690
			 0.487258 -0.077109  0.869847
			 0.692554  0.007926  0.721323
			 0.600945  0.020975  0.799015
			 0.545344 -0.079736  0.834411
			 0.832655  0.001685  0.553790
			 0.588730  0.152374  0.793838
			 0.519653  0.169388  0.837417
			 0.724387  0.088607  0.683676
			 0.602236  0.194873  0.774168
			 0.282016  0.048333  0.958192
			 0.152397  0.005141  0.988306
			 0.605544  0.185069  0.773994
			 0.566984  0.157505  0.808530
			 0.491274  0.104619  0.864699
			 0.128816  0.018082  0.991504
			-0.036887 -0.006811  0.999296
			-0.119251 -0.006548  0.992842
			 0.384303  0.057871  0.921392
			 0.019207  0.030148  0.999361
			 0.384532  0.068262  0.920584
			 0.254892  0.057827  0.965239
			 0.193215  0.051693  0.979794
			 0.371245  0.037117  0.927793
			-0.985193 -0.116092 -0.126167
			-0.944274 -0.062842 -0.323107
			-0.930701 -0.162044 -0.327929
			-0.945620 -0.246586 -0.212128
			-0.959054 -0.197433  0.203068
			-0.964024 -0.245690 -0.101456
			-0.599116 -0.030926  0.800065
			-0.411084 -0.009599  0.911547
			-0.468778 -0.012722  0.883225
			-0.421556 -0.015912  0.906663
			-0.583695 -0.034850  0.811225
			-0.683198 -0.061076  0.727675
			-0.786440 -0.087685  0.611411
			-0.565114 -0.018725  0.824801
			-0.959719 -0.097786  0.263395
			-0.981067 -0.168878  0.094805
			-0.964490 -0.191395  0.182010
			-0.960318 -0.211020  0.182375
			-0.913947 -0.114047  0.389480
			-0.971357 -0.228254  0.066073
			-0.137892 -0.009540  0.990401
			-0.254657  0.006381  0.967011
			-0.446814 -0.019808  0.894407
			 0.001518 -0.994835  0.101498
			 0.365219 -0.899702 -0.239063
			 0.338822 -0.937637 -0.077697
			 0.023901 -0.999299  0.028799
			-0.151637 -0.944660 -0.290900
			 0.077727 -0.922717 -0.377561
			-0.024983 -0.989527 -0.142169
			-0.707422 -0.695301 -0.126929
			-0.174793 -0.852956 -0.491848
			-0.400878 -0.829696 -0.388461
			-0.607913 -0.713564 -0.348235
			-0.796015 -0.568752 -0.207076
			-0.655404 -0.527747 -0.540305
			-0.732871 -0.372875 -0.569091
			-0.958374  0.196477 -0.207163
			-0.877276 -0.281228 -0.388969
			-0.858328 -0.209221 -0.468508
			-0.755281  0.052333 -0.653308
			-0.793042  0.364638 -0.487979
			-0.766933  0.231030 -0.598698
			-0.765073 -0.136871 -0.629230
			-0.905302  0.333255 -0.263381
			-0.765405  0.420613 -0.487074
			-0.735902  0.220683 -0.640115
			-0.824330  0.087053 -0.559376
			-0.797033  0.025086 -0.603414
			-0.860769 -0.019923 -0.508606
			-0.841321 -0.008830 -0.540464
			 0.350913 -0.834704 -0.424416
			 0.484944 -0.759029 -0.434402
			 0.510764 -0.748676 -0.422616
			 0.188990 -0.925047 -0.329501
			-0.022446 -0.968690 -0.247255
			 0.363302 -0.922523 -0.130241
			 0.353910 -0.802483 -0.480384
			-0.226184 -0.945575 -0.233944
			-0.071513 -0.997207  0.021552
			-0.026891 -0.971958  0.233614
			-0.088943 -0.893021  0.441138
			-0.111561 -0.983935 -0.139378
			-0.250283 -0.890911 -0.378993
			-0.162726 -0.951171 -0.262287
			 0.046632 -0.336424  0.940555
			 0.066168 -0.396193  0.915780
			 0.274712 -0.572389  0.772596
			 0.195845 -0.638113  0.744618
			 0.074369 -0.804547  0.589214
			 0.067263 -0.706839  0.704169
			 0.374034 -0.403470  0.835051
			 0.296781 -0.376547  0.877572
			 0.317006 -0.248426  0.915310
			 0.690012  0.015132  0.723639
			 0.637867 -0.049925  0.768527
			 0.473032 -0.174998  0.863491
			 0.545485 -0.137895  0.826699
			 0.588582  0.016859  0.808262
			 0.761223 -0.016533  0.648279
			 0.619143  0.002805  0.785273
			 0.788409  0.173668  0.590128
			 0.768813  0.173342  0.615532
			 0.830748 -0.014480  0.556461
			 0.688969  0.157059  0.707570
			 0.371245  0.076039  0.925416
			 0.487527  0.079745  0.869459
			 0.733317  0.232017  0.639073
			 0.688001  0.169482  0.705642
			 0.003284 -0.000102  0.999995
			 0.592187  0.100066  0.799563
			 0.523627  0.117655  0.843784
			 0.431252  0.106559  0.895917
			 0.582374  0.140608  0.800669
			 0.054052  0.022261  0.998290
			 0.218790  0.073059  0.973033
			 0.410114  0.124052  0.903558
			-0.844326 -0.096765 -0.527019
			-0.702774 -0.031194 -0.710729
			-0.733555 -0.126692 -0.667717
			-0.854603 -0.215326 -0.472535
			-0.846908 -0.253537 -0.467404
			-0.979438 -0.184138 -0.082426
			-0.905667 -0.203336 -0.372050
			-0.484866 -0.016077  0.874441
			-0.453328 -0.005187  0.891329
			-0.330031  0.008918  0.943928
			-0.614568 -0.024275  0.788490
			-0.424278  0.008730  0.905490
			-0.520786  0.009827  0.853631
			-0.735407 -0.068873  0.674117
			-0.830468 -0.091735  0.549461
			-0.383379  0.016569  0.923443
			-0.911500 -0.184296 -0.367700
			-0.935714 -0.258351 -0.240198
			-0.944984 -0.273547 -0.179379
			-0.977734 -0.184750  0.099512
			-0.910600 -0.118932  0.395806
			-0.053932 -0.007114  0.998519
			-0.115549  0.020697  0.993086
			-0.505799 -0.026464  0.862245
			-0.245538  0.020658  0.969167
			 0.135964 -0.986789 -0.088102
			 0.167948 -0.977321 -0.128986
			 0.092052 -0.993884 -0.061009
			 0.021665 -0.763470 -0.645480
			 0.136967 -0.831319 -0.538655
			-0.357943 -0.794646 -0.490321
			-0.107305 -0.691948 -0.713929
			-0.458846 -0.665278 -0.588953
			-0.430849 -0.499638 -0.751486
			-0.660753 -0.303026 -0.686717
			-0.513530 -0.375186 -0.771701
			-0.776551 -0.235676 -0.584316
			-0.652677 -0.065682 -0.754783
			-0.620440 -0.111796 -0.776244
			-0.567090  0.145099 -0.810775
			-0.586515  0.249257 -0.770630
			-0.527458  0.439774 -0.726902
			-0.409218  0.616519 -0.672640
			-0.460970  0.579614 -0.671978
			-0.716916  0.511611 -0.473587
			-0.502263  0.580044 -0.641311
			-0.506739  0.344563 -0.790248
			-0.611914  0.115322 -0.782471
			-0.672397 -0.012954 -0.740077
			-0.622533  0.024109 -0.782222
			-0.655387  0.001843 -0.755291
			-0.512313  0.017757 -0.858615
			 0.236420 -0.744490 -0.624372
			 0.390243 -0.650189 -0.651893
			 0.478981 -0.682002 -0.552675
			 0.363609 -0.770781 -0.523149
			 0.274250 -0.886791 -0.372008
			 0.042668 -0.885490 -0.462696
			-0.244740 -0.814019 -0.526759
			 0.289204 -0.943437  0.162133
			 0.179127 -0.974099 -0.138002
			 0.136239 -0.893997  0.426859
			-0.048692 -0.914904 -0.400724
			-0.239719 -0.819534 -0.520479
			 0.454647 -0.404989  0.793272
			 0.264966 -0.660240  0.702763
			 0.413077 -0.497451  0.762830
			 0.391638 -0.772591  0.499723
			 0.527797 -0.278446  0.802432
			 0.475435 -0.268923  0.837641
			 0.790939  0.110835  0.601773
			 0.697164 -0.079023  0.712543
			 0.839217  0.135580  0.526624
			 0.592109 -0.150516  0.791676
			 0.727441  0.040639  0.684966
			 0.866618  0.026779  0.498254
			 0.926653 -0.089512  0.365106
			 0.896719  0.017638  0.442249
			 0.820101  0.071845  0.567690
			 0.821574  0.148441  0.550438
			 0.769569  0.228121  0.596426
			 0.837342  0.254940  0.483594
			 0.862344  0.206395  0.462346
			 0.790289  0.156582  0.592389
			 0.609678  0.127177  0.782380
			 0.710045  0.106775  0.696013
			 0.630518  0.141129  0.763237
			 0.626284  0.146811  0.765646
			 0.753792  0.153761  0.638870
			 0.703511  0.162223  0.691922
			 0.558600  0.151400  0.815502
			 0.142359  0.085618  0.986105
			-0.010807  0.052396  0.998568
			 0.360250  0.125062  0.924435
			-0.590185 -0.072097 -0.804042
			-0.359412 -0.017120 -0.933022
			-0.690777 -0.210065 -0.691882
			-0.491489 -0.086534 -0.866574
			-0.496363 -0.032390 -0.867510
			-0.637828 -0.202328 -0.743128
			-0.743345 -0.203177 -0.637305
			-0.780668 -0.131683 -0.610915
			-0.160849  0.034063  0.986391
			-0.176171  0.021255  0.984130
			-0.644141 -0.032979  0.764196
			-0.168247  0.052835  0.984328
			-0.268021  0.040352  0.962568
			-0.360306  0.055356  0.931191
			-0.583215 -0.006637  0.812291
			-0.517518  0.006074  0.855650
			-0.749453 -0.087802  0.656209
			-0.603184 -0.039219  0.796637
			-0.721833 -0.168296 -0.671293
			-0.824935 -0.283999 -0.488699
			-0.791886 -0.327192 -0.515618
			-0.836489 -0.275813 -0.473512
			-0.946735 -0.215743 -0.239058
			-0.975154 -0.196414 -0.102447
			-0.935363 -0.122230  0.331897
			-0.848627 -0.096050  0.520199
			-0.973618 -0.149986  0.171966
			 0.139045 -0.694592 -0.705839
			 0.090418 -0.542903 -0.834914
			-0.216365 -0.633331 -0.743020
			-0.032766 -0.486204 -0.873231
			-0.188765 -0.470136 -0.862172
			-0.286623 -0.335535 -0.897365
			-0.485344 -0.262925 -0.833854
			-0.670081 -0.211847 -0.711415
			-0.535993 -0.133268 -0.833637
			-0.478631 -0.038537 -0.877170
			-0.439661  0.126122 -0.889265
			-0.486405  0.001884 -0.873731
			-0.465456 -0.024321 -0.884737
			-0.382039  0.361910 -0.850333
			-0.371915  0.296003 -0.879808
			-0.223613  0.592033 -0.774270
			-0.202532  0.637324 -0.743505
			-0.387997  0.631514 -0.671304
			-0.287359  0.622476 -0.727975
			-0.388568  0.492277 -0.778895
			-0.356552  0.363944 -0.860474
			-0.308694  0.500787 -0.808653
			-0.384306  0.228454 -0.894493
			-0.399855  0.122892 -0.908302
			-0.437757  0.026402 -0.898706
			-0.377047 -0.018830 -0.926003
			-0.186702  0.071979 -0.979776
			 0.298926 -0.555204 -0.776139
			 0.406811 -0.593332 -0.694595
			 0.405267 -0.496482 -0.767635
			 0.470529 -0.639774 -0.607693
			 0.009214 -0.693385 -0.720508
			 0.238481 -0.727973 -0.642793
			 0.414879 -0.690059 -0.593038
			-0.294858 -0.772348 -0.562616
			-0.228441 -0.652741 -0.722318
			 0.483774 -0.873626 -0.052354
			 0.574978 -0.804589  0.148452
			 0.550529 -0.778289  0.301967
			 0.452755 -0.857842 -0.243146
			 0.177609 -0.943701 -0.279077
			 0.020401 -0.832192 -0.554113
			 0.309867 -0.854440 -0.417032
			-0.195416 -0.832116 -0.519034
			 0.666227 -0.139430  0.732599
			 0.661499 -0.293728  0.690031
			 0.630655 -0.509982  0.584972
			 0.671489 -0.610304  0.420276
			 0.917765  0.130654  0.375015
			 0.857136  0.105595  0.504151
			 0.949520 -0.014401  0.313374
			 0.949259 -0.070425  0.306510
			 0.956002 -0.096801  0.276930
			 0.957568  0.002428  0.288199
			 0.939839  0.127748  0.316831
			 0.897182  0.206418  0.390456
			 0.872965  0.262566  0.411085
			 0.918602  0.291217  0.267137
			 0.896071  0.186787  0.402701
			 0.963393  0.186159  0.192921
			 0.883188  0.176678  0.434470
			 0.905766  0.161497  0.391801
			 0.902068  0.131705  0.411007
			 0.843845  0.136263  0.518998
			 0.837714  0.167790  0.519693
			 0.733579  0.151199  0.662571
			 0.422723  0.161272  0.891794
			 0.556906  0.166672  0.813680
			 0.647400  0.155071  0.746208
			 0.241737  0.123080  0.962504
			 0.013522  0.077660  0.996888
			-0.374795 -0.064172 -0.924884
			-0.133628  0.009252 -0.990988
			-0.238211 -0.065147 -0.969026
			-0.483974 -0.144464 -0.863075
			-0.436970 -0.006692 -0.899451
			-0.309985 -0.079434 -0.947417
			-0.606461 -0.028290 -0.794609
			-0.571320 -0.175117 -0.801828
			-0.390006 -0.137451 -0.910496
			 0.005049  0.062712  0.998019
			 0.053313  0.059548  0.996801
			-0.517370  0.002916  0.855757
			-0.046012  0.105998  0.993301
			 0.060880  0.108602  0.992219
			-0.244841  0.066721  0.967265
			-0.107673  0.066505  0.991959
			-0.264182  0.037696  0.963736
			-0.615045 -0.015157  0.788346
			-0.424363 -0.015981  0.905351
			-0.475045  0.013852  0.879853
			-0.532770 -0.011009  0.846189
			-0.724735 -0.042618  0.687708
			-0.687749 -0.039690  0.724863
			-0.449809 -0.003125  0.893119
			-0.605423 -0.246638 -0.756725
			-0.709278 -0.329803 -0.623021
			-0.562839 -0.335542 -0.755397
			-0.588813 -0.332768 -0.736590
			-0.830235 -0.245962 -0.500212
			-0.865784 -0.194229 -0.461187
			-0.842535 -0.235308 -0.484526
			-0.968495 -0.196646 -0.152800
			-0.947718 -0.131327  0.290834
			-0.858449 -0.094936  0.504036
			-0.906979 -0.108889  0.406858
			-0.737593 -0.062372  0.672359
			-0.980696 -0.186814 -0.057756
			 0.299843 -0.460292 -0.835599
			 0.155430 -0.466909 -0.870538
			 0.236050 -0.409421 -0.881280
			-0.078717 -0.284280 -0.955504
			 0.024677 -0.336962 -0.941195
			-0.162644 -0.179669 -0.970189
			-0.292504 -0.165604 -0.941816
			-0.239339 -0.027476 -0.970547
			-0.370840  0.051043 -0.927293
			-0.318056  0.218992 -0.922433
			-0.196547  0.406789 -0.892128
			-0.185504  0.514115 -0.837421
			-0.270740  0.397201 -0.876887
			-0.347807  0.332248 -0.876722
			-0.109603  0.438608 -0.891970
			-0.232218  0.227363 -0.945717
			 0.171568  0.198069 -0.965056
			-0.040038  0.161702 -0.986027
			-0.105172  0.147971 -0.983384
			-0.152987  0.138640 -0.978455
			 0.390541 -0.410079 -0.824205
			 0.311494 -0.487332 -0.815769
			 0.213839 -0.671062 -0.709894
			 0.429352 -0.418372 -0.800388
			 0.089458 -0.624745 -0.775687
			-0.204491 -0.721726 -0.661283
			-0.275354 -0.654635 -0.704012
			-0.287661 -0.531784 -0.796528
			-0.112698 -0.498433 -0.859572
			-0.303634 -0.453762 -0.837798
			 0.728917 -0.671878  0.131375
			 0.632570 -0.771873 -0.063772
			 0.808747 -0.479554  0.340523
			 0.698372 -0.700206 -0.148282
			 0.629729 -0.708466 -0.318617
			 0.704325 -0.646022 -0.294248
			 0.254816 -0.846472 -0.467497
			 0.009168 -0.726993 -0.686584
			 0.219918 -0.751904 -0.621511
			 0.505987 -0.792331 -0.340864
			 0.807844 -0.094961  0.581697
			 0.875155 -0.208404  0.436659
			 0.829279 -0.375757  0.413645
			 0.938914  0.196699  0.282399
			 0.925093  0.186130  0.330997
			 0.954730  0.059339  0.291496
			 0.920100  0.061727  0.386788
			 0.979474  0.021675  0.200400
			 0.933458 -0.018328  0.358219
			 0.943004 -0.096445  0.318499
			 0.945929  0.012649  0.324128
			 0.917356  0.005323  0.398032
			 0.947440  0.023272  0.319086
			 0.958598  0.262180  0.111137
			 0.948705  0.259944  0.179968
			 0.922454  0.313085  0.225956
			 0.950082  0.311994 -0.002016
			 0.937086  0.178707  0.299889
			 0.968934  0.150669 -0.196128
			 0.984145  0.136102  0.113735
			 0.982256  0.132233  0.132993
			 0.941713  0.140980  0.305453
			 0.975896  0.127931  0.176804
			 0.910541  0.140437  0.388836
			 0.837265  0.183367  0.515135
			 0.919917  0.180843  0.347919
			 0.910102  0.180227  0.373139
			 0.816251  0.188498  0.546080
			 0.731378  0.175962  0.658881
			 0.338840  0.158576  0.927384
			 0.486270  0.177423  0.855607
			 0.689646  0.183698  0.700460
			 0.688784  0.175173  0.703485
			 0.634695  0.171830  0.753417
			 0.170392  0.103043  0.979974
			-0.263987 -0.090144 -0.960305
			-0.364729 -0.091583 -0.926599
			-0.572969 -0.119867 -0.810764
			-0.211184 -0.059372 -0.975642
			 0.024894  0.075138 -0.996862
			-0.084195 -0.044408 -0.995459
			-0.015882 -0.061267 -0.997995
			 0.477586 -0.064162 -0.876239
			-0.529393 -0.049380 -0.846938
			-0.427950 -0.097444 -0.898534
			-0.439897 -0.156110 -0.884376
			-0.309103 -0.217682 -0.925781
			-0.669789 -0.099757 -0.735820
			-0.366916 -0.245967 -0.897147
			 0.124440  0.134868  0.983019
			 0.056070  0.090718  0.994297
			 0.225556  0.121500  0.966624
			 0.129783  0.091511  0.987311
			-0.006850  0.097775  0.995185
			-0.373240  0.026194  0.927365
			-0.099392  0.089395  0.991024
			 0.003502  0.084892  0.996384
			-0.637541 -0.048331  0.768899
			-0.448821  0.008283  0.893583
			-0.569351 -0.025057  0.821713
			-0.336547 -0.350696 -0.873927
			-0.313159 -0.282084 -0.906841
			-0.478887 -0.295128 -0.826781
			-0.581625 -0.265649 -0.768858
			-0.853440 -0.203685 -0.479743
			-0.746785 -0.177255 -0.641008
			-0.861840 -0.230922 -0.451561
			-0.768993 -0.234364 -0.594746
			-0.952884 -0.148611  0.264438
			-0.950726 -0.138399  0.277426
			-0.873291 -0.099859  0.476855
			-0.642788 -0.042781  0.764849
			-0.744379 -0.065328  0.664554
			-0.846168 -0.217494 -0.486514
			-0.882178 -0.180173 -0.435086
			-0.984233 -0.176827  0.004250
			 0.258867 -0.329923 -0.907821
			 0.190485 -0.399098 -0.896904
			 0.306694 -0.318266 -0.897021
			 0.020619 -0.286903 -0.957738
			-0.012461 -0.072754 -0.997272
			 0.082145 -0.274765 -0.957996
			 0.040887 -0.356745 -0.933307
			-0.159996 -0.096678 -0.982372
			-0.139745  0.159002 -0.977338
			-0.262291  0.150174 -0.953232
			-0.150209  0.419708 -0.895144
			 0.021173  0.544595 -0.838432
			 0.041399  0.432347 -0.900757
			-0.010822  0.266956 -0.963648
			 0.112177  0.306687 -0.945177
			 0.286499  0.235220 -0.928757
			 0.292710  0.331903 -0.896750
			 0.156432  0.112582 -0.981251
			 0.251361 -0.304372 -0.918790
			 0.473255 -0.338639 -0.813236
			 0.128174 -0.478724 -0.868559
			 0.469420 -0.355198 -0.808381
			-0.114289 -0.551229 -0.826489
			-0.223908 -0.531537 -0.816905
			-0.244406 -0.544375 -0.802447
			-0.183064 -0.383155 -0.905362
			-0.291921 -0.383600 -0.876147
			-0.000418 -0.361154 -0.932506
			-0.176853 -0.432115 -0.884307
			-0.333136 -0.365111 -0.869318
			-0.304425 -0.324687 -0.895491
			 0.875270 -0.409810  0.256823
			 0.853516 -0.515460  0.076233
			 0.900461 -0.239199  0.363255
			 0.931132 -0.126544  0.342024
			 0.880360 -0.473244 -0.031722
			 0.848839 -0.484994 -0.210367
			 0.731779 -0.622092 -0.278390
			 0.920469 -0.367358 -0.133362
			 0.319632 -0.866968 -0.382364
			 0.120886 -0.591176 -0.797432
			 0.428538 -0.632279 -0.645430
			 0.493423 -0.732265 -0.469384
			 0.950810  0.086707  0.297391
			 0.924667  0.194536  0.327334
			 0.988601  0.050864  0.141707
			 0.921907  0.166086  0.350005
			 0.889235  0.128958  0.438898
			 0.991013  0.030478  0.130244
			 0.972998 -0.055352  0.224080
			 0.984453  0.151762 -0.088432
			 0.942004  0.231343  0.243125
			 0.833234  0.153691  0.531131
			 0.969629  0.059670  0.237189
			 0.961125  0.130639  0.243252
			 0.969404  0.237508  0.062018
			 0.915123  0.350226 -0.199731
			 0.914654  0.363995 -0.175831
			 0.835571  0.428195 -0.344195
			 0.945125  0.314199  0.089542
			 0.848145  0.386088 -0.362748
			 0.893572  0.267290 -0.360674
			 0.924787  0.374585 -0.066748
			 0.970897  0.115801 -0.209642
			 0.820325  0.212122 -0.531104
			 0.850699  0.162643 -0.499858
			 0.975186  0.110914 -0.191599
			 0.983791  0.138894  0.113416
			 0.980254  0.114443 -0.161261
			 0.978552  0.108406  0.175169
			 0.990433  0.086994 -0.107120
			 0.957372  0.142473  0.251276
			 0.925367  0.191345  0.327234
			 0.975942  0.165761  0.141637
			 0.981313  0.155964  0.112692
			 0.829522  0.188488  0.525704