<?xml version="1.0"?>
<VTKFile type="PolyData" version="0.1" byte_order="LittleEndian" compressor="vtkZLibDataCompressor">
	<PolyData>
		<Piece NumberOfPoints="1321" NumberOfVerts="0" NumberOfLines="0" NumberOfStrips="0" NumberOfPolys="2638">
		<PointData Normals="Normals">
		<DataArray type="Float32" Name="Normals" NumberOfComponents="3" format="ascii">
			-0.321644 -0.946848 -0.004840
			-0.205119 -0.969996 -0.130513
			-0.247231 -0.920493  0.302606
			-0.318809 -0.929624  0.184823
			-0.277330 -0.920233 -0.276152
			-0.275168 -0.915072 -0.294833
			 0.027862 -0.997945 -0.057697
			-0.048617 -0.932351 -0.358270
			-0.347762 -0.627513  0.696627
			-0.402276 -0.667878  0.626189
			-0.125581 -0.890814  0.436669
			-0.114859 -0.940835  0.318805
			-0.433331 -0.664942  0.608339
			-0.506452 -0.732200  0.455400
			-0.394191 -0.918580  0.028712
			 0.010973 -0.900583 -0.434545
			-0.078789 -0.864683 -0.496101
			-0.496337 -0.849510 -0.178839
			-0.336113 -0.846384 -0.413113
			 0.081091 -0.987464  0.135423
			 0.295297 -0.918672 -0.262377
			 0.195292 -0.909563 -0.366818
			-0.447877 -0.321648  0.834235
			-0.419058 -0.308246  0.854034
			-0.285878 -0.570772  0.769736
			-0.464246 -0.345796  0.815414
			-0.034624 -0.954721  0.295482
			-0.085642 -0.818204  0.568514
			 0.126366 -0.986659  0.102640
			 0.113016 -0.984487  0.134214
			-0.521798 -0.378876  0.764316
			-0.638637 -0.718493  0.275519
			-0.657006 -0.445587  0.608108
			 0.336307 -0.888647 -0.311777
			 0.178508 -0.894564 -0.409745
			-0.139379 -0.883214 -0.447779
			-0.744295 -0.657979  0.114406
			-0.580633 -0.801743 -0.141680
			-0.370748 -0.881357 -0.292840
			 0.212027 -0.912963 -0.348631
			 0.202163 -0.926828 -0.316417
			-0.437865 -0.106911  0.892661
			-0.414629 -0.096016  0.904911
			-0.341641 -0.293084  0.892963
			-0.389218 -0.134069  0.911337
			-0.212162 -0.495243  0.842450
			-0.452750 -0.120592  0.883445
			-0.011659 -0.701994  0.712087
			 0.165443 -0.937174  0.307138
			 0.281589 -0.955271 -0.090361
			-0.559586 -0.198712  0.804598
			-0.754449 -0.541398  0.371073
			-0.719650 -0.396908  0.569709
			 0.264251 -0.919538 -0.290898
			 0.304116 -0.801635 -0.514679
			 0.047440 -0.846822 -0.529756
			-0.228804 -0.865096 -0.446383
			-0.749409 -0.650877  0.121432
			-0.707600 -0.667207  0.232673
			-0.511423 -0.857481 -0.056333
			-0.332546 -0.896831 -0.291733
			 0.306635 -0.878635 -0.366026
			 0.222211 -0.906513 -0.358966
			-0.362683  0.041719  0.930978
			-0.506369  0.059936  0.860231
			-0.343658 -0.088642  0.934902
			-0.239515 -0.278023  0.930234
			-0.144198 -0.377572  0.914683
			-0.551832 -0.036728  0.833146
			 0.091207 -0.559994  0.823461
			 0.342930 -0.743680  0.573880
			 0.452470 -0.876339  0.165227
			 0.557445 -0.825070 -0.092274
			-0.677877 -0.207595  0.705257
			-0.788459 -0.362362  0.497016
			 0.359767 -0.762768 -0.537358
			 0.377838 -0.789762 -0.483233
			 0.241159 -0.770087 -0.590600
			 0.394425 -0.603455 -0.693015
			-0.048277 -0.756485 -0.652227
			-0.319234 -0.775690 -0.544421
			-0.747342 -0.625287  0.224714
			-0.554787 -0.830149 -0.055352
			-0.435371 -0.855446 -0.280470
			-0.336647 -0.788245 -0.515110
			 0.528591 -0.763492 -0.371042
			 0.622102 -0.730739 -0.281086
			-0.381365  0.058926  0.922545
			-0.472421  0.073203  0.878328
			-0.304109  0.098274  0.947555
			-0.674696  0.115798  0.728956
			-0.611844  0.221528  0.759324
			-0.663977 -0.032403  0.747051
			-0.574276  0.161548  0.802564
			-0.269883  0.001964  0.962891
			-0.429110  0.014673  0.903133
			-0.125592 -0.217708  0.967900
			 0.007670 -0.380853  0.924604
			-0.703905 -0.156446  0.692851
			 0.189373 -0.482732  0.855048
			 0.612068 -0.729570  0.305124
			 0.403566 -0.605794  0.685674
			 0.690266 -0.723543 -0.004280
			-0.825583 -0.239366  0.510996
			-0.878414 -0.426723  0.215166
			 0.468259 -0.587717 -0.659790
			 0.535261 -0.689194 -0.488373
			 0.257962 -0.613717 -0.746195
			 0.436020 -0.508056 -0.742809
			 0.314976 -0.443009 -0.839365
			 0.362453 -0.422664 -0.830652
			-0.029273 -0.553226 -0.832517
			-0.335739 -0.618008 -0.710877
			-0.497635 -0.597217 -0.629040
			-0.757775 -0.645903 -0.092659
			-0.542051 -0.724523 -0.425731
			-0.483480 -0.635201 -0.602301
			 0.634510 -0.704220 -0.318545
			 0.697784 -0.697610 -0.162600
			-0.310863  0.062056  0.948427
			-0.415196  0.066558  0.907294
			-0.262708  0.093967  0.960289
			-0.302802  0.167710  0.938182
			-0.742137  0.292434  0.603088
			-0.700048  0.080241  0.709573
			-0.841978  0.145519  0.519517
			-0.680663  0.262676  0.683885
			-0.675853  0.238174  0.697492
			-0.817017 -0.095387  0.568670
			-0.730000  0.091232  0.677330
			-0.214491 -0.062733  0.974709
			 0.138397 -0.424760  0.894665
			-0.063185 -0.228701  0.971444
			 0.591034 -0.679159  0.435227
			 0.691327 -0.715425  0.101166
			 0.333531 -0.516531  0.788640
			 0.275678 -0.454028  0.847266
			-0.934574 -0.332386  0.126851
			-0.918703 -0.172092  0.355483
			-0.923890 -0.381672 -0.027443
			-0.882206 -0.441157 -0.164600
			 0.666797 -0.407103 -0.624219
			 0.595545 -0.553953 -0.581774
			 0.461846 -0.489636 -0.739564
			 0.174271 -0.469971 -0.865308
			 0.152295 -0.385208 -0.910176
			 0.448879 -0.383071 -0.807319
			 0.333205 -0.294560 -0.895661
			-0.158321 -0.470130 -0.868281
			-0.483543 -0.511780 -0.710117
			-0.530503 -0.527360 -0.663670
			-0.808772 -0.394747 -0.435962
			-0.660343 -0.476487 -0.580437
			-0.702870 -0.441935 -0.557375
			-0.713341 -0.582325 -0.389925
			-0.747553 -0.499859 -0.437386
			 0.809893 -0.574719 -0.117353
			 0.714095 -0.539812 -0.445725
			 0.776494 -0.628145  0.049914
			 0.706699 -0.686828  0.169836
			-0.107646 -0.145979  0.983414
			-0.328891  0.046364  0.943229
			-0.143144  0.093161  0.985307
			-0.273380  0.100478  0.956644
			-0.462658  0.117564  0.878707
			-0.175002  0.138828  0.974731
			-0.264406  0.184021  0.946692
			-0.021080  0.152308  0.988108
			-0.257279  0.356400  0.898213
			-0.101305  0.267072  0.958337
			-0.870219  0.297134  0.392976
			-0.842787  0.244825  0.479344
			-0.677518  0.115825  0.726329
			-0.841826  0.069257  0.535287
			-0.937820  0.158272  0.308940
			-0.965513  0.069122  0.251012
			-0.876625  0.065345  0.476716
			-0.096493 -0.191580  0.976722
			 0.125402 -0.324974  0.937372
			 0.598826 -0.586821  0.545021
			 0.061356 -0.309026  0.949072
			 0.345192 -0.473554  0.810302
			-0.982595 -0.175445  0.061034
			-0.943575 -0.266443 -0.196659
			-0.904986 -0.301498 -0.300167
			 0.691813 -0.357884 -0.627147
			 0.950269 -0.156020 -0.269531
			 0.951900 -0.157590 -0.262779
			 0.590727 -0.380113 -0.711728
			 0.660094 -0.421990 -0.621450
			 0.115538 -0.488109 -0.865101
			 0.474424 -0.254834 -0.842604
			 0.465627 -0.126309 -0.875921
			 0.368589 -0.225067 -0.901935
			-0.272690 -0.505162 -0.818811
			-0.566158 -0.540222 -0.622595
			-0.687503 -0.472042 -0.551830
			-0.862211 -0.323049 -0.390170
			-0.946217 -0.140559 -0.291404
			-0.921100 -0.256001 -0.293324
			 0.836172 -0.440223 -0.327140
			 0.893756 -0.423813 -0.146914
			 0.875512 -0.469766  0.113133
			 0.940397 -0.340073 -0.001780
			 0.793820 -0.302947 -0.527326
			 0.777611 -0.535674  0.329203
			 0.155624 -0.283590  0.946233
			 0.293765 -0.364576  0.883621
			 0.055070 -0.266347  0.962303
			-0.080955 -0.024301  0.996421
			-0.141219  0.129370  0.981489
			-0.500268  0.131774  0.855784
			-0.332394  0.142543  0.932307
			 0.098407  0.156516  0.982761
			-0.104801  0.321458  0.941107
			-0.060706  0.184853  0.980889
			 0.030855  0.137637  0.990002
			 0.099027  0.123851  0.987347
			 0.077422  0.127508  0.988811
			-0.148931  0.304183  0.940900
			-0.212010  0.358360  0.909192
			-0.079490  0.397823  0.914012
			-0.930836  0.289534  0.222967
			-0.951561  0.285813  0.113327
			-0.933535  0.172639  0.314178
			-0.978954  0.009383  0.203864
			-0.838145  0.083869  0.538961
			-0.784570  0.126198  0.607062
			-0.635871  0.142156  0.758590
			-0.561573  0.146111  0.814424
			-0.952662  0.041404  0.301200
			-0.976338  0.187542  0.107667
			-0.985242  0.112564  0.128949
			-0.996475  0.011944  0.083041
			-0.996149  0.064668 -0.059207
			 0.614636 -0.450769  0.647325
			 0.544658 -0.479746  0.687890
			-0.989601 -0.116993 -0.083680
			-0.986137 -0.123019 -0.111354
			 0.837622 -0.242044 -0.489697
			 0.859450 -0.215808 -0.463436
			 0.932106 -0.136247 -0.335581
			 0.730131 -0.247143 -0.637048
			-0.210640 -0.625209 -0.751495
			-0.070961 -0.649691 -0.756879
			-0.011383 -0.566767 -0.823800
			 0.178375 -0.411122 -0.893958
			 0.573058 -0.132768 -0.808689
			 0.582089 -0.036343 -0.812313
			 0.510753 -0.045478 -0.858524
			 0.166437 -0.249320 -0.954012
			 0.212388 -0.045565 -0.976123
			 0.402735 -0.013408 -0.915219
			-0.587173 -0.490767 -0.643720
			-0.731908 -0.448982 -0.512567
			-0.795216 -0.364158 -0.484790
			-0.839842 -0.322892 -0.436355
			-0.956519 -0.135648 -0.258206
			-0.985231  0.036587 -0.167277
			-0.995139  0.061581 -0.076856
			-0.972330  0.012267 -0.233290
			-0.942661 -0.089689 -0.321474
			 0.933213 -0.278276 -0.227325
			 0.907235 -0.362694  0.213023
			 0.963873 -0.222121  0.147007
			 0.979133 -0.194014  0.060475
			 0.798954 -0.326881  0.504799
			 0.374238 -0.389673  0.841487
			 0.158942 -0.223670  0.961618
			 0.218232 -0.088925  0.971837
			-0.211985  0.141674  0.966949
			-0.427967  0.140795  0.892760
			 0.313050 -0.036596  0.949032
			 0.239272  0.311837  0.919514
			 0.521034  0.130382  0.843519
			-0.107512  0.246655  0.963121
			-0.065184  0.147499  0.986912
			 0.111174  0.222916  0.968477
			 0.315718  0.188577  0.929925
			 0.218129  0.158377  0.962983
			 0.415843  0.163433  0.894631
			 0.168804  0.115955  0.978805
			 0.009466  0.328717  0.944381
			 0.258494  0.331934  0.907194
			-0.988769  0.094897  0.115456
			-0.974600  0.210291 -0.077026
			-0.981034  0.186912 -0.051352
			-0.972387  0.223845  0.066004
			-0.906590  0.069467  0.416255
			-0.683210  0.145062  0.715668
			-0.677557  0.130115  0.723869
			-0.550229  0.144388  0.822436
			-0.992570  0.003309  0.121628
			-0.866059  0.496103  0.061829
			-0.991298 -0.017339 -0.130490
			-0.982980  0.180703  0.033130
			-0.919914  0.006130 -0.392073
			-0.978254  0.124495 -0.165890
			 0.455982 -0.274489  0.846603
			 0.659403 -0.288500  0.694230
			 0.815276 -0.172321 -0.552839
			 0.791758 -0.199742 -0.577254
			 0.888638 -0.248340 -0.385551
			 0.945434 -0.240011 -0.220339
			 0.736268 -0.158077 -0.657967
			-0.300191 -0.608550 -0.734542
			-0.179318 -0.525183 -0.831882
			 0.007154 -0.452188 -0.891894
			 0.500383  0.016088 -0.865655
			 0.713819 -0.069219 -0.696902
			 0.558992  0.064477 -0.826662
			 0.520581  0.032577 -0.853190
			 0.409817  0.117084 -0.904622
			-0.106587 -0.389808 -0.914707
			-0.004638 -0.182493 -0.983196
			 0.120903 -0.058107 -0.990962
			 0.239617  0.049313 -0.969614
			 0.100977  0.147313 -0.983922
			 0.018853  0.060891 -0.997966
			 0.254951  0.194317 -0.947228
			-0.435123 -0.412993 -0.800066
			-0.838412 -0.268520 -0.474303
			-0.681272 -0.325788 -0.655539
			-0.943391 -0.173460 -0.282710
			-0.922157 -0.227415 -0.312905
			-0.947230 -0.152070 -0.282187
			-0.990464  0.038974 -0.132147
			 0.904173 -0.144824  0.401866
			 0.933582 -0.097407  0.344870
			 0.950620 -0.186663  0.247950
			 0.870720 -0.062140  0.487837
			 0.959641 -0.260999 -0.104736
			 0.734130 -0.104498  0.670920
			 0.488650 -0.204834  0.848095
			-0.311692  0.138519  0.940032
			-0.443992  0.142390  0.884644
			 0.138370  0.138292  0.980678
			-0.093386  0.164176  0.982001
			-0.407282  0.167842  0.897747
			-0.515008  0.171177  0.839920
			 0.524037 -0.081469  0.847790
			 0.473193  0.264258  0.840391
			 0.667246  0.130800  0.733263
			 0.796533  0.019810  0.604270
			 0.246512  0.278912  0.928138
			 0.055644  0.288948  0.955726
			 0.419686  0.274767  0.865082
			 0.650860  0.270654  0.709315
			 0.398730  0.140183  0.906291
			 0.776348  0.219778  0.590746
			 0.650454  0.146905  0.745204
			 0.338457  0.292501  0.894366
			 0.448323  0.268591  0.852564
			-0.987842  0.150980 -0.037058
			-0.986212  0.158934  0.046105
			 0.919086  0.329940  0.215455
			-0.725510  0.093100  0.681885
			-0.987095 -0.006691  0.159994
			-0.975292  0.006390  0.220828
			-0.892277  0.046475  0.449089
			-0.509409  0.084071  0.856408
			-0.992740 -0.038678 -0.113890
			 0.994749  0.082474  0.060601
			-0.888889 -0.032157 -0.456993
			-0.981289  0.192401  0.007320
			-0.790442  0.223995 -0.570113
			-0.907203  0.195080 -0.372728
			-0.775191  0.033458 -0.630841
			-0.960226  0.210179 -0.183822
			 0.854439 -0.126161 -0.504001
			 0.890208 -0.255615 -0.377082
			 0.807627 -0.099880 -0.581174
			 0.804120 -0.025113 -0.593937
			 0.467953 -0.109098 -0.876993
			 0.609394  0.036051 -0.792048
			 0.359017  0.026857 -0.932944
			 0.770748  0.003401 -0.637130
			 0.661704  0.089745 -0.744375
			 0.566026  0.179429 -0.804624
			 0.250131  0.212545 -0.944595
			 0.054170  0.348000 -0.935928
			-0.299300 -0.250983 -0.920558
			-0.282143 -0.063946 -0.957239
			-0.030508 -0.027266 -0.999163
			-0.158129  0.247900 -0.955793
			-0.302082  0.080968 -0.949837
			-0.628445 -0.228772 -0.743452
			-0.432299 -0.212092 -0.876433
			-0.937970 -0.100919 -0.331705
			-0.831015 -0.165945 -0.530920
			-0.972306  0.061019 -0.225606
			 0.922235 -0.107258  0.371455
			 0.991983 -0.123055  0.028770
			 0.745267  0.033665  0.665915
			 0.941830 -0.214151 -0.259027
			-0.259193  0.106643  0.959920
			 0.074235  0.131713  0.988504
			 0.536655  0.087450  0.839258
			 0.556346  0.243444  0.794490
			 0.809072  0.340515  0.479011
			 0.588431  0.346287  0.730640
			 0.882104  0.257694  0.394318
			 0.935534  0.262608  0.236248
			 0.952728  0.203537  0.225572
			 0.852226  0.176121  0.492638
			 0.861459  0.123305  0.492630
			-0.981395  0.161755 -0.103439
			-0.868691 -0.001381  0.495352
			-0.708913  0.003869  0.705285
			-0.995457 -0.044640 -0.084097
			-0.965587 -0.001078  0.260076
			-0.995136 -0.048427 -0.085786
			-0.997789 -0.046184  0.047795
			-0.947769 -0.015599  0.318576
			-0.390355  0.027068  0.920266
			-0.602331 -0.044878  0.796984
			-0.902733 -0.080807 -0.422544
			-0.743644 -0.135752 -0.654649
			-0.687209 -0.071671 -0.722915
			-0.889981  0.259971 -0.374632
			-0.858243  0.371907 -0.353702
			-0.678381  0.437903 -0.589949
			-0.589998  0.298453 -0.750219
			-0.462166  0.103923 -0.880683
			 0.990582 -0.073595 -0.115460
			 0.884563  0.018692 -0.466047
			 0.842414 -0.002390 -0.538826
			 0.887574  0.081276 -0.453439
			 0.916594  0.207965 -0.341477
			 0.607135 -0.172172 -0.775722
			 0.206050 -0.177617 -0.962287
			 0.427649 -0.201013 -0.881312
			 0.643821  0.095619 -0.759178
			 0.697429 -0.083891 -0.711727
			 0.037574  0.206441 -0.977737
			 0.060357 -0.062894 -0.996193
			 0.873259  0.162734 -0.459278
			 0.763710  0.166920 -0.623606
			 0.641129  0.220375 -0.735111
			-0.121890  0.430298 -0.894420
			-0.239928  0.375497 -0.895230
			-0.378473  0.516784 -0.767914
			-0.599200 -0.013153 -0.800492
			-0.457675  0.466831 -0.756705
			-0.587458  0.265987 -0.764293
			-0.655702  0.139048 -0.742106
			-0.857120 -0.031423 -0.514158
			-0.884981  0.134396 -0.445810
			 0.989382 -0.053941  0.134957
			 0.855589 -0.060918  0.514058
			 0.998809 -0.045501  0.017612
			 0.694113  0.151007  0.703850
			-0.156184  0.063721  0.985670
			 0.153378  0.050320  0.986886
			 0.876779  0.001104  0.480892
			 0.671854 -0.017275  0.740482
			 0.453057  0.006930  0.891455
			 0.581620  0.263981  0.769437
			 0.804825  0.445424  0.392242
			 0.881318  0.397560  0.255392
			 0.940754  0.290798  0.174408
			 0.798010  0.346206  0.493276
			 0.968904  0.235883 -0.074721
			 0.942628  0.332161 -0.033489
			 0.971650  0.209549 -0.109475
			 0.973985  0.171735  0.147852
			 0.985766  0.073905  0.151009
			-0.956185 -0.083200  0.280693
			-0.937138 -0.219359  0.271393
			-0.871287 -0.077548  0.484609
			-0.820638 -0.036363  0.570291
			-0.763612 -0.118547  0.634700
			-0.921593 -0.090319 -0.377504
			-0.992659 -0.088774  0.082138
			-0.957612 -0.116693 -0.263367
			-0.463814 -0.088613  0.881490
			-0.180657  0.001123  0.983545
			-0.626534 -0.228839  0.745042
			-0.781621 -0.232508 -0.578799
			-0.564356 -0.256831 -0.784564
			-0.433359 -0.163380 -0.886288
			-0.700511  0.493483 -0.515518
			-0.704724  0.403938 -0.583265
			-0.188817  0.215028 -0.958181
			-0.213847  0.004027 -0.976859
			 0.997843 -0.045983  0.046858
			 0.967450  0.136628  0.213009
			 0.989689  0.142792 -0.011264
			 0.929749  0.304867 -0.206454
			 0.936644  0.342446  0.073678
			 0.918507  0.395396 -0.002694
			 0.670176 -0.170113 -0.722444
			 0.433650 -0.275567 -0.857910
			 0.029786 -0.331001 -0.943160
			-0.141957 -0.227008 -0.963491
			 0.749662 -0.000147 -0.661821
			 0.920255  0.341450 -0.191161
			 0.811257  0.294257 -0.505247
			 0.775823  0.257278 -0.576113
			 0.953989  0.011984  0.299602
			 0.789271  0.209602  0.577164
			 0.598693  0.243416  0.763096
			 0.026395 -0.048933  0.998453
			 0.257103  0.020285  0.966171
			 0.990647 -0.030999  0.132880
			 0.951929 -0.097001  0.290554
			 0.846346 -0.040309  0.531106
			 0.708291 -0.058942  0.703455
			 0.424121 -0.110518  0.898837
			 0.756830  0.284840  0.588281
			 0.908974  0.411101  0.069014
			 0.898972  0.264845 -0.348864
			 0.960244  0.157034 -0.230809
			 0.876424  0.336662 -0.344297
			 0.990140 -0.029147 -0.137016
			-0.974748 -0.214633 -0.061632
			-0.837905 -0.237551  0.491411
			-0.929048 -0.369922  0.005244
			-0.959519 -0.280309 -0.027382
			-0.875220 -0.381689  0.297158
			-0.901618 -0.404989  0.151883
			-0.821090 -0.129163  0.555993
			-0.739330 -0.262367  0.620124
			-0.691838 -0.291296  0.660686
			-0.884582 -0.176902 -0.431533
			-0.937776 -0.200790 -0.283301
			-0.419591 -0.203264  0.884662
			-0.230998 -0.101466  0.967649
			-0.628856 -0.359438  0.689453
			-0.574300 -0.365384  0.732580
			-0.500988 -0.300314  0.811679
			-0.557602 -0.264940  0.786693
			-0.446317 -0.378412 -0.810929
			-0.529967 -0.359507 -0.768042
			-0.884638 -0.224666 -0.408584
			-0.750717 -0.238410 -0.616105
			-0.323673 -0.337207 -0.884040
			 0.778444 -0.199536 -0.595156
			 0.249664 -0.309327 -0.917597
			 0.331429 -0.316356 -0.888861
			 0.546428 -0.286298 -0.787052
			 0.641862 -0.310309 -0.701228
			 0.183361 -0.312845 -0.931937
			-0.098329 -0.377542 -0.920757
			 0.911387 -0.041471 -0.409455
			 0.876851  0.126267 -0.463884
			 0.184368 -0.037740  0.982132
			 0.051413 -0.134039  0.989641
			 0.168644 -0.133428  0.976604
			-0.103764 -0.167541  0.980389
			 0.994850 -0.088502 -0.049406
			 0.892275 -0.225585  0.391097
			 0.710928 -0.165942  0.683406
			 0.974524 -0.195361 -0.110166
			 0.406326 -0.553860  0.726731
			 0.357767 -0.398395  0.844561
			 0.916743 -0.137917 -0.374914
			-0.886535 -0.308985 -0.344359
			-0.763628 -0.366517  0.531542
			-0.772266 -0.445404  0.453014
			-0.755688 -0.307682  0.578159
			-0.836710 -0.453854 -0.306485
			-0.864721 -0.499426 -0.053208
			-0.834170 -0.549747  0.044040
			-0.751608 -0.591392  0.292130
			-0.672606 -0.338683  0.657948
			-0.187585 -0.263221  0.946323
			-0.418010 -0.287739  0.861669
			-0.499107 -0.387955  0.774844
			-0.610674 -0.360432  0.705100
			-0.685333 -0.309785  0.659054
			-0.675172 -0.353892  0.647227
			-0.497941 -0.274758  0.822534
			-0.491900 -0.272240  0.826994
			-0.566977 -0.288162  0.771686
			-0.477240 -0.333652  0.812969
			-0.424114 -0.251672  0.869936
			-0.509718 -0.074413  0.857118
			-0.533522 -0.035347  0.845047
			-0.291785 -0.401716 -0.868035
			-0.157918 -0.378831 -0.911893
			-0.428852 -0.313263 -0.847321
			-0.735295 -0.256668 -0.627266
			-0.809233 -0.251929 -0.530729
			 0.921871 -0.218706 -0.319877
			 0.816587 -0.264035 -0.513295
			 0.085061 -0.336465 -0.937846
			 0.154225 -0.321619 -0.934225
			 0.440861 -0.355054 -0.824366
			 0.529730 -0.323361 -0.784107
			 0.286874 -0.238371 -0.927838
			 0.112584 -0.300256 -0.947191
			 0.668445 -0.334755 -0.664169
			 0.086644 -0.145881  0.985501
			 0.214363 -0.291107  0.932365
			-0.082265 -0.314287  0.945757
			 0.670873 -0.288327  0.683226
			 0.909579 -0.347518  0.227811
			 0.849757 -0.293495  0.437919
			 0.919324 -0.163418 -0.357964
			 0.947758 -0.280534 -0.151837
			 0.260161 -0.744121  0.615304
			 0.293467 -0.663806  0.687924
			-0.729607 -0.332891 -0.597376
			-0.809902 -0.257656 -0.526946
			-0.683885 -0.421987  0.595171
			-0.742349 -0.373731  0.556096
			-0.783321 -0.540065  0.307796
			-0.743233 -0.362256  0.562473
			-0.758143 -0.448920  0.472959
			-0.793602 -0.493934  0.355281
			-0.798851 -0.570319 -0.191240
			-0.757694 -0.587874 -0.283381
			-0.744343 -0.477918 -0.466421
			-0.763977 -0.635421 -0.112157
			-0.727725 -0.673932  0.127405
			-0.739423 -0.665759  0.100092
			-0.660579 -0.743919  0.101088
			-0.031877 -0.240899  0.970027
			-0.807366 -0.130200  0.575507
			-0.770911 -0.250289  0.585706
			-0.231945 -0.313514  0.920821
			-0.083551 -0.307282  0.947944
			 0.747509 -0.322661  0.580621
			-0.717386 -0.199685  0.667445
			-0.652955 -0.241482  0.717870
			-0.633736 -0.273482  0.723593
			-0.821582 -0.075138  0.565118
			-0.802126 -0.117029  0.585575
			-0.513301 -0.078432  0.854617
			-0.561227 -0.051917  0.826032
			-0.627011 -0.213074  0.749304
			-0.634020 -0.068984  0.770234
			-0.526598  0.022368  0.849820
			-0.312456 -0.187939  0.931155
			-0.209913 -0.224032  0.951707
			-0.210862 -0.349581  0.912869
			-0.355531  0.015387  0.934538
			-0.476670  0.030697  0.878546
			-0.458063  0.190086  0.868358
			-0.485031  0.165862  0.858624
			-0.471481  0.221623  0.853574
			-0.495180 -0.300783 -0.815062
			-0.213130 -0.307220 -0.927465
			-0.578729 -0.290631 -0.761975
			-0.678597 -0.272133 -0.682239
			 0.846075 -0.305395 -0.436911
			 0.478805 -0.321864 -0.816793
			 0.231944 -0.273737 -0.933418
			 0.307199 -0.184489 -0.933591
			 0.174661 -0.133618 -0.975520
			 0.422688 -0.181341 -0.887947
			-0.166524 -0.283054 -0.944537
			-0.117548 -0.303059 -0.945694
			 0.083410 -0.315679 -0.945193
			 0.607376 -0.313262 -0.730041
			 0.746932 -0.355476 -0.561899
			 0.254947 -0.573955  0.778188
			 0.109036 -0.494287  0.862433
			 0.472418 -0.483753  0.736753
			-0.058287 -0.360979  0.930751
			 0.099227 -0.367184  0.924841
			-0.050623 -0.370023  0.927642
			-0.042243 -0.391014  0.919415
			-0.029482 -0.230249  0.972685
			-0.030662 -0.152248  0.987867
			-0.097405 -0.263876  0.959626
			 0.713630 -0.411948  0.566597
			 0.939886 -0.340884 -0.020292
			 0.720954 -0.520584  0.457404
			 0.916756 -0.396519 -0.048287
			 0.841657 -0.525272  0.125316
			 0.876554 -0.384879 -0.289001
			-0.406104 -0.309139 -0.859949
			-0.526354 -0.437926 -0.728816
			-0.823118 -0.275737  0.496433
			-0.824806 -0.280293  0.491050
			-0.650212 -0.363233  0.667297
			-0.805187 -0.213382  0.553302
			-0.811424 -0.205079  0.547297
			-0.874333 -0.484763 -0.023358
			-0.864637 -0.442088  0.238665
			-0.848286 -0.279975  0.449473
			-0.902669 -0.144052  0.405509
			-0.844117 -0.452477  0.287630
			-0.928159 -0.362826  0.082942
			-0.704215 -0.684145 -0.189808
			-0.629292 -0.660215 -0.410010
			-0.640870 -0.573928 -0.509796
			-0.634043 -0.657567 -0.406934
			-0.618340 -0.702119 -0.353106
			-0.693366 -0.718634 -0.053003
			-0.641976 -0.756676 -0.123731
			-0.681435 -0.641870 -0.351638
			-0.542691 -0.767618 -0.340953
			-0.550821 -0.764415 -0.335061
			-0.877910  0.087653  0.470735
			-0.867027  0.072705  0.492928
			 0.776817 -0.121345  0.617924
			-0.938130 -0.040102  0.343954
			-0.928226 -0.105373  0.356780
			-0.741411 -0.005841  0.671026
			-0.827307  0.062663  0.558245
			-0.711120 -0.015291  0.702905
			-0.854948 -0.027004  0.518010
			-0.883456  0.133791  0.449004
			-0.908474  0.218029  0.356563
			-0.550034  0.188340  0.813628
			-0.650766  0.168803  0.740277
			-0.473899  0.267966  0.838817
			-0.268180  0.008380  0.963332
			-0.022069 -0.027662  0.999374
			-0.151390  0.045052  0.987447
			-0.416686  0.235203  0.878096
			-0.295174  0.304789  0.905525
			-0.364772  0.404300  0.838739
			-0.408566  0.383927  0.828054
			-0.492377  0.389405  0.778414
			-0.361726  0.433952  0.825130
			-0.384387 -0.287740 -0.877185
			 0.032103 -0.383966 -0.922789
			 0.256995 -0.316568 -0.913093
			 0.366163 -0.172408 -0.914440
			 0.393951 -0.257093 -0.882443
			 0.348366 -0.246966 -0.904239
			 0.431866 -0.155511 -0.888430
			 0.349324 -0.112686 -0.930201
			 0.092115 -0.119096 -0.988600
			 0.183347 -0.178684 -0.966673
			 0.621500 -0.229246 -0.749122
			 0.487463 -0.136877 -0.862348
			-0.216789 -0.378497 -0.899857
			 0.682178 -0.336821 -0.648988
			 0.773595 -0.394247 -0.496104
			 0.275056 -0.510458  0.814725
			 0.472779 -0.601575  0.643885
			 0.287529 -0.724150  0.626844
			 0.176780 -0.580836  0.794593
			 0.034728 -0.475023  0.879288
			 0.036249 -0.439236  0.897640
			 0.173348 -0.450719  0.875673
			-0.028465 -0.245081  0.969085
			 0.010968 -0.259359  0.965719
			 0.113348 -0.127252  0.985373
			-0.038773 -0.393589  0.918469
			 0.032522 -0.076923  0.996506
			 0.112903 -0.055085  0.992078
			 0.106826  0.119622  0.987056
			 0.551339 -0.545414  0.631308
			 0.656914 -0.725922  0.203719
			 0.492148 -0.675609  0.548948
			 0.861851 -0.459657 -0.214307
			 0.731297 -0.650328 -0.205617
			-0.345988 -0.503933 -0.791419
			-0.936988 -0.000249  0.349362
			-0.932641 -0.028104  0.359710
			-0.832642 -0.226905  0.505194
			-0.934672  0.199771  0.294075
			-0.911820  0.086377  0.401401
			-0.925076 -0.346449 -0.155585
			-0.823371 -0.400890 -0.401681
			-0.966011  0.040112  0.255372
			-0.960006 -0.214242  0.180244
			-0.965496  0.195091  0.172501
			-0.929535 -0.358511  0.086222
			-0.991854 -0.086614 -0.093395
			-0.969780 -0.236883 -0.058427
			-0.983267 -0.182066  0.006068
			-0.960405 -0.235225 -0.149304
			-0.490713 -0.804693 -0.334170
			-0.431198 -0.593111 -0.679918
			-0.428610 -0.755387 -0.495665
			-0.416789 -0.569842 -0.708214
			-0.375636 -0.667412 -0.643007
			-0.361309 -0.699660 -0.616386
			-0.614374 -0.442090 -0.653530
			-0.419036 -0.639101 -0.644949
			-0.301052 -0.744505 -0.595886
			-0.319456 -0.772358 -0.549009
			-0.918249  0.153173  0.365180
			-0.908393  0.296846  0.294457
			-0.967492  0.054407  0.246981
			-0.763344  0.259069  0.591768
			-0.834217  0.378525  0.401000
			-0.842910  0.477793  0.247420
			-0.838868  0.540862  0.061395
			-0.673795  0.327684  0.662287
			-0.582728  0.402490  0.705996
			-0.364372  0.407680  0.837275
			-0.369580  0.465737  0.804052
			-0.232171  0.255819  0.938431
			 0.014608  0.128970  0.991541
			-0.098805  0.296335  0.949960
			-0.114226  0.510664  0.852159
			-0.201961  0.558334  0.804658
			-0.242090  0.622199  0.744487
			-0.205801  0.638157  0.741891
			-0.374556  0.631065  0.679312
			-0.516589  0.661670  0.543442
			-0.224118  0.647471  0.728390
			-0.135602 -0.488522 -0.861950
			 0.167204 -0.384611 -0.907809
			 0.408017 -0.278903 -0.869330
			 0.402822 -0.315485 -0.859188
			 0.447871 -0.111857 -0.887073
			 0.363784 -0.153304 -0.918781
			 0.289729 -0.120680 -0.949470
			 0.408723 -0.140959 -0.901707
			 0.676026 -0.268325 -0.686287
			 0.725882 -0.314374 -0.611771
			 0.576628 -0.199782 -0.792204
			 0.448107 -0.115178 -0.886530
			 0.788770 -0.383326 -0.480524
			 0.449246 -0.546330  0.706896
			 0.502359 -0.363743  0.784428
			 0.410189 -0.333497  0.848837
			 0.598572 -0.279919  0.750571
			 0.440266 -0.844813  0.304068
			 0.332756 -0.866502  0.372087
			 0.209594 -0.698639  0.684086
			 0.378702 -0.741308  0.554118
			 0.250157 -0.244911  0.936718
			 0.160540 -0.218085  0.962635
			 0.182100 -0.271077  0.945176
			 0.176908 -0.126289  0.976092
			 0.271932  0.027551  0.961922
			 0.409527  0.103948  0.906357
			 0.282552  0.055689  0.957634
			 0.223340  0.200076  0.953986
			 0.105503  0.346503  0.932097
			 0.153280  0.327693  0.932267
			 0.260838  0.325128  0.908986
			 0.557447 -0.830049 -0.016490
			 0.575550 -0.753566  0.317616
			 0.802558 -0.350383 -0.482838
			 0.753216 -0.499954 -0.427447
			 0.578938 -0.815221  0.015670
			 0.626166 -0.737751 -0.252270
			 0.748859 -0.549226 -0.370893
			-0.949550  0.288013  0.124111
			-0.922771  0.372802  0.097531
			-0.937021  0.230354  0.262543
			-0.877065 -0.235153 -0.418880
			-0.726389 -0.237316 -0.645011
			-0.943649  0.326273  0.055425
			-0.986120  0.144301  0.082120
			-0.947121  0.320407  0.017327
			-0.978660 -0.193308  0.069689
			-0.994451  0.100044  0.032521
			-0.912645  0.408017 -0.024513
			-0.986732 -0.025623 -0.160322
			-0.974577  0.100908 -0.200044
			-0.943831  0.239288 -0.227868
			-0.989809  0.113774 -0.085632
			-0.948467 -0.025820 -0.315822
			-0.184113 -0.533938 -0.825235
			-0.144765 -0.504222 -0.851354
			-0.200485 -0.513035 -0.834626
			-0.458099 -0.529134 -0.714256
			-0.159067 -0.527772 -0.834359
			-0.373500 -0.620868 -0.689218
			-0.173440 -0.772562 -0.610791
			-0.307555 -0.503866 -0.807174
			-0.607024 -0.203657 -0.768145
			-0.508522 -0.266874 -0.818648
			-0.194520 -0.686836 -0.700299
			-0.277546 -0.692136 -0.666270
			-0.893709  0.429872  0.128432
			-0.750326  0.537036  0.385490
			-0.754738  0.625891  0.196549
			-0.622240  0.780367 -0.062000