<?xml version="1.0"?>
<VTKFile type="PolyData" version="0.1" byte_order="LittleEndian" compressor="vtkZLibDataCompressor">
	<PolyData>
		<Piece NumberOfPoints="3280" NumberOfVerts="0" NumberOfLines="0" NumberOfStrips="0" NumberOfPolys="6556">
		<PointData Normals="Normals">
		<DataArray type="Float32" Name="Normals" NumberOfComponents="3" format="ascii">
			-0.216231 -0.022033 -0.976093
			-0.233989  0.017609 -0.972080
			-0.392286  0.002136 -0.919841
			-0.452172 -0.053111 -0.890348
			-0.014984 -0.000262 -0.999888
			-0.298559 -0.068692 -0.951916
			-0.125168 -0.032222 -0.991612
			-0.170983  0.019401 -0.985083
			-0.574174 -0.014257 -0.818609
			-0.605521 -0.016573 -0.795657
			-0.412471  0.005284 -0.910955
			-0.435434 -0.022338 -0.899943
			-0.373485 -0.081836 -0.924019
			-0.546560 -0.048658 -0.836005
			-0.626278 -0.025739 -0.779175
			 0.151804  0.037152 -0.987712
			 0.069758 -0.044968 -0.996550
			 0.399218  0.045086 -0.915747
			-0.180508 -0.047679 -0.982417
			-0.183320  0.012945 -0.982968
			 0.164164  0.048838 -0.985223
			-0.054351  0.045075 -0.997504
			-0.662280 -0.005236 -0.749238
			-0.623752 -0.005243 -0.781604
			-0.705483 -0.004905 -0.708710
			-0.713613 -0.036665 -0.699580
			-0.606818 -0.018520 -0.794625
			-0.500932 -0.018336 -0.865293
			-0.746678 -0.020411 -0.664873
			-0.765245 -0.031179 -0.642984
			-0.355912  0.004599 -0.934508
			-0.425596 -0.047253 -0.903679
			 0.422550 -0.005555 -0.906323
			 0.948907 -0.017250 -0.315083
			-0.286929 -0.069037 -0.955461
			-0.731608 -0.036415 -0.680752
			-0.559123 -0.067413 -0.826339
			-0.667716 -0.038135 -0.743439
			-0.734998 -0.025692 -0.677583
			 0.439529  0.054234 -0.896590
			 0.439887 -0.000510 -0.898053
			 0.313050 -0.026740 -0.949360
			 0.276118 -0.028149 -0.960712
			-0.080204 -0.083047 -0.993313
			 0.249388 -0.051878 -0.967013
			 0.614373  0.014741 -0.788878
			 0.680137  0.067694 -0.729953
			-0.126266  0.042294 -0.991094
			 0.054888  0.080119 -0.995273
			 0.540348  0.066819 -0.838784
			 0.401961  0.110975 -0.908907
			-0.635913 -0.010421 -0.771690
			-0.844791  0.021339 -0.534671
			-0.799798  0.009656 -0.600192
			-0.710129  0.012854 -0.703954
			-0.798829 -0.024162 -0.601073
			-0.532238 -0.005250 -0.846579
			-0.517236  0.011487 -0.855766
			-0.854012  0.006306 -0.520216
			-0.881548 -0.013647 -0.471897
			-0.575976  0.011872 -0.817380
			-0.498727  0.038935 -0.865884
			-0.310522  0.046029 -0.949451
			-0.100572  0.073754 -0.992192
			 0.404336 -0.050084 -0.913238
			-0.411186 -0.083009 -0.907764
			-0.772762 -0.021578 -0.634329
			-0.642489 -0.070252 -0.763068
			-0.604818 -0.057479 -0.794286
			-0.826766 -0.006520 -0.562508
			-0.798510 -0.064684 -0.598496
			-0.828830 -0.029001 -0.558749
			-0.790162 -0.008089 -0.612845
			 0.626452  0.080947 -0.775245
			 0.506270 -0.006486 -0.862351
			-0.165696 -0.105709 -0.980495
			-0.030126 -0.084013 -0.996009
			 0.483436 -0.034032 -0.874718
			 0.431827 -0.044305 -0.900868
			 0.265025 -0.074876 -0.961330
			 0.676588  0.012336 -0.736258
			 0.747734  0.015901 -0.663808
			 0.785562  0.038740 -0.617569
			 0.746761  0.088242 -0.659212
			 0.808110  0.064875 -0.585447
			-0.017977  0.079565 -0.996668
			 0.200589  0.107789 -0.973728
			 0.645413  0.084536 -0.759141
			 0.711493  0.092975 -0.696515
			 0.494171  0.113028 -0.861986
			-0.900502 -0.014378 -0.434613
			-0.936152  0.014623 -0.351292
			-0.965762  0.001169 -0.259429
			-0.796175  0.014994 -0.604881
			-0.854682  0.004497 -0.519133
			-0.676909  0.014185 -0.735930
			-0.703796  0.005199 -0.710383
			-0.781296  0.013333 -0.624018
			-0.884741 -0.008531 -0.466005
			-0.628605  0.015574 -0.777569
			 0.416938  0.014155 -0.908825
			 0.400565  0.000422 -0.916268
			-0.937651  0.015114 -0.347249
			-0.967187 -0.022039 -0.253106
			-0.979132 -0.009217 -0.203017
			-0.634861  0.017525 -0.772428
			-0.632530  0.024646 -0.774143
			-0.493203  0.027595 -0.869477
			-0.534026  0.074022 -0.842221
			-0.400747  0.080627 -0.912634
			-0.245861  0.092164 -0.964913
			-0.014004  0.092235 -0.995639
			 0.248994  0.103498 -0.962959
			 0.248701  0.112454 -0.962030
			-0.522465 -0.085371 -0.848376
			-0.579625 -0.074219 -0.811496
			-0.283027 -0.085885 -0.955259
			-0.682424 -0.061879 -0.728333
			-0.898121  0.010481 -0.439623
			-0.908585  0.001759 -0.417696
			-0.835704  0.008560 -0.549114
			-0.871815 -0.018260 -0.489495
			-0.957866  0.003859 -0.287188
			-0.779058 -0.070678 -0.622955
			-0.876518 -0.071497 -0.476029
			-0.903059 -0.036264 -0.427984
			 0.628965 -0.018395 -0.777216
			 0.711553 -0.030880 -0.701953
			 0.671043 -0.005909 -0.741395
			 0.715297 -0.024455 -0.698392
			-0.193555 -0.106035 -0.975343
			 0.044962 -0.072972 -0.996320
			 0.640121 -0.042315 -0.767108
			 0.497377 -0.064248 -0.865152
			 0.405962 -0.066377 -0.911476
			 0.491154 -0.076919 -0.867670
			 0.287390 -0.093518 -0.953237
			 0.398050 -0.081328 -0.913752
			 0.860387 -0.009698 -0.509548
			 0.841212  0.004778 -0.540684
			 0.897483  0.057220 -0.437322
			 0.834823  0.060965 -0.547132
			 0.805566  0.095813 -0.584708
			 0.838032  0.058632 -0.542461
			 0.806099  0.077110 -0.586736
			 0.898096  0.063786 -0.435149
			 0.748148  0.069860 -0.659844
			 0.698557  0.107493 -0.707434
			 0.587473  0.113160 -0.801293
			-0.910056 -0.001051 -0.414485
			-0.923827 -0.012184 -0.382616
			-0.936149 -0.018566 -0.351113
			-0.999973 -0.007378  0.000580
			-0.979948  0.000112  0.199254
			-0.996642 -0.001412 -0.081864
			-0.976855  0.004148 -0.213863
			-0.891845 -0.001932 -0.452336
			-0.542880  0.008602 -0.839766
			-0.706998  0.023230 -0.706834
			-0.809523  0.018396 -0.586800
			-0.868887  0.020407 -0.494590
			-0.956882 -0.004697 -0.290437
			-0.977070 -0.020482 -0.211930
			 0.410428  0.029746 -0.911408
			-0.993037 -0.023079 -0.115516
			-0.996910 -0.031674  0.071885
			-0.682440  0.034400 -0.730132
			-0.653812  0.029221 -0.756093
			-0.675628  0.058719 -0.734900
			-0.513269  0.074879 -0.854955
			-0.543451  0.114065 -0.831655
			-0.384873  0.106907 -0.916757
			-0.064616  0.111732 -0.991635
			-0.257695  0.128403 -0.957657
			 0.312175  0.116625 -0.942839
			 0.494140  0.087822 -0.864935
			 0.481383  0.103433 -0.870386
			-0.511974 -0.082041 -0.855074
			-0.642073 -0.044946 -0.765325
			-0.337566 -0.103353 -0.935611
			-0.966455 -0.001309 -0.256833
			-0.929909  0.013795 -0.367531
			-0.973336  0.028381 -0.227620
			-0.999486  0.023712  0.021593
			-0.977849  0.035230 -0.206326
			-0.920729 -0.008273 -0.390116
			-0.978387  0.024178  0.205363
			-0.998796  0.030504  0.038422
			-0.876756  0.027835 -0.480130
			-0.930446  0.013669 -0.366174
			-0.905903 -0.094731 -0.412754
			-0.750413 -0.116027 -0.650706
			-0.626618 -0.122847 -0.769584
			-0.942767 -0.058002 -0.328368
			-0.953316 -0.020886 -0.301252
			 0.782354 -0.021056 -0.622478
			 0.853618 -0.010967 -0.520785
			 0.816655 -0.001966 -0.577123
			 0.829348 -0.045001 -0.556917
			-0.366849 -0.126811 -0.921597
			-0.320249 -0.141997 -0.936631
			-0.024044 -0.121082 -0.992351
			 0.634691 -0.066995 -0.769856
			 0.780488 -0.052610 -0.622953
			 0.687936 -0.078572 -0.721506
			 0.698061 -0.112487 -0.707147
			 0.474506 -0.093710 -0.875250
			 0.167513 -0.157910 -0.973141
			 0.527887 -0.137954 -0.838036
			 0.475798 -0.162234 -0.864463
			 0.918183  0.022529 -0.395517
			 0.926749  0.022462 -0.375008
			 0.984008  0.061128 -0.167307
			 0.984806  0.081770 -0.153201
			 0.804034  0.097678 -0.586505
			 0.868688  0.071507 -0.490171
			 0.946804  0.084318 -0.310568
			 0.983407  0.048743 -0.174741
			 0.820079  0.134089 -0.556319
			 0.732162  0.107179 -0.672645
			 0.597244  0.119140 -0.793161
			-0.971698 -0.040456  0.232738
			-0.894911 -0.032586  0.445053
			-0.996468  0.012548  0.083030
			-0.869376 -0.016228  0.493884
			-0.915769 -0.000083  0.401706
			-0.871120 -0.012913  0.490900
			-0.961483 -0.003655  0.274841
			-0.995822  0.017715 -0.089582
			-0.800147  0.040500 -0.598436
			-0.818890  0.028796 -0.573228
			-0.896534 -0.000046 -0.442975
			-0.999057 -0.010670  0.042089
			-0.964463  0.003133 -0.264201
			-0.994211 -0.002015  0.107426
			-0.953979 -0.007255  0.299786
			-0.940483 -0.038611  0.337639
			-0.716047  0.030120 -0.697402
			-0.679741  0.063401 -0.730707
			-0.556101  0.052138 -0.829478
			-0.722323  0.045680 -0.690045
			-0.581224  0.066875 -0.810991
			-0.738996  0.027876 -0.673133
			-0.611522  0.102506 -0.784559
			-0.460613  0.084043 -0.883613
			-0.642133  0.098052 -0.760297
			-0.354575  0.096892 -0.929994
			-0.085196  0.148586 -0.985223
			 0.211998  0.178152 -0.960895
			-0.345704  0.118180 -0.930872
			-0.205156  0.149870 -0.967187
			-0.135571  0.139625 -0.980880
			 0.563246  0.191146 -0.803876
			 0.388524  0.178423 -0.903999
			-0.436487 -0.116337 -0.892157
			-0.989535  0.032056 -0.140685
			-0.958241  0.023305  0.285012
			-0.997135  0.031997  0.068548
			 0.153600  0.097198 -0.983341
			 0.916764 -0.027183 -0.398502
			 0.843725  0.020745 -0.536374
			-0.970551  0.013448  0.240519
			-0.890455  0.034775  0.453741
			-0.846153  0.004590  0.532920
			-0.877809  0.011379  0.478876
			-0.961201  0.051138  0.271067
			-0.946042  0.029122  0.322734
			-0.875467 -0.139761 -0.462628
			-0.964914 -0.061112 -0.255354
			-0.980234 -0.076469 -0.182466
			-0.932490 -0.129722 -0.337099
			-0.875315 -0.118929 -0.468700
			-0.514712 -0.116852 -0.849363
			-0.540606 -0.116402 -0.833184
			-0.711390 -0.155146 -0.685459
			-0.508124 -0.133213 -0.850920
			-0.850427 -0.119438 -0.512356
			-0.958412  0.028652 -0.283945
			-0.998338 -0.003533 -0.057522
			-0.983347 -0.043965 -0.176340
			 0.899852 -0.003528 -0.436182
			 0.970524  0.016682 -0.240428
			-0.268844 -0.164051 -0.949110
			-0.010025 -0.146453 -0.989167
			 0.898759 -0.046168 -0.436007
			 0.842455 -0.124438 -0.524199
			 0.672285 -0.166017 -0.721437
			 0.778088 -0.170429 -0.604593
			 0.643925 -0.110988 -0.756996
			 0.288849 -0.212279 -0.933544
			 0.222118 -0.179204 -0.958410
			 0.447326 -0.171806 -0.877714
			 0.539177 -0.202152 -0.817571
			 0.997716  0.059820 -0.031386
			 0.981767  0.114182  0.151975
			 0.985058  0.064892  0.159528
			 0.997079  0.076258  0.004242
			 0.989260  0.090926  0.114443
			 0.863179  0.131890 -0.487367
			 0.916917  0.025639 -0.398253
			 0.921457  0.078096 -0.380549
			 0.923362  0.102066 -0.370114
			 0.994713  0.083621 -0.059609
			 0.953119  0.031723 -0.300927
			 0.993268  0.108528  0.040504
			 0.993787  0.111281  0.001846
			 0.834911  0.136978 -0.533067
			 0.893891  0.159151 -0.419083
			 0.893918  0.138269 -0.426370
			 0.888915  0.147919 -0.433531
			 0.802985  0.160238 -0.574055
			 0.715111  0.144967 -0.683814
			-0.741482 -0.011236  0.670879
			-0.777276 -0.019429  0.628860
			-0.779459 -0.000501  0.626454
			-0.959245  0.010485  0.282383
			-0.901011  0.009303  0.433697
			-0.896880  0.028131  0.441378
			-0.651439 -0.009713  0.758639
			-0.714408 -0.003100  0.699722
			-0.774785  0.010440  0.632139
			-0.790370  0.023893 -0.612163
			-0.833746  0.017071 -0.551885
			-0.853162  0.033160 -0.520592
			-0.828633  0.009352 -0.559715
			-0.894636 -0.001352 -0.446793
			-0.999637  0.011550 -0.024340
			-0.975429 -0.017426  0.219622
			-0.932771 -0.009116  0.360353
			-0.936719  0.041374  0.347628
			-0.928350  0.017025 -0.371316
			-0.835116  0.011605  0.549951
			-0.884868  0.007013  0.465788
			-0.809323  0.018287  0.587080
			 0.747032  0.051280 -0.662807
			-0.598410  0.097254 -0.795265
			-0.701830  0.105968 -0.704419
			-0.600159  0.083623 -0.795497
			 0.373424  0.043368 -0.926646
			-0.817548  0.044392 -0.574147
			-0.844768  0.008278 -0.535070
			-0.644480  0.059766 -0.762281
			-0.475163  0.145988 -0.867702
			 0.085038  0.181888 -0.979635
			 0.529518  0.250335 -0.810521
			 0.385276  0.234970 -0.892385
			 0.396860  0.222026 -0.890621
			-0.287092  0.171330 -0.942457
			-0.379706  0.153587 -0.912269
			 0.046076  0.200939 -0.978519
			 0.009777  0.164988 -0.986247
			-0.147995  0.171011 -0.974091
			 0.734111  0.241635 -0.634581
			-0.862287  0.030710  0.505489
			-0.966806  0.051195  0.250331
			-0.898588  0.033098  0.437543
			-0.934226  0.054996  0.352417
			-0.718707  0.017700  0.695088
			-0.789979  0.004487  0.613118
			-0.713246 -0.008516  0.700862
			-0.790119  0.016690  0.612726
			-0.888347  0.063921  0.454702
			-0.978800 -0.018008 -0.204024
			-0.993373 -0.047253 -0.104772
			-0.983775 -0.103240 -0.146726
			-0.995837 -0.066056 -0.062809
			-0.831949 -0.166079 -0.529413
			-0.965225 -0.146647 -0.216413
			-0.918967 -0.175988 -0.352885
			-0.860448 -0.187008 -0.473979
			-0.843658 -0.170960 -0.508934
			-0.497652 -0.177396 -0.849043
			-0.682481 -0.191569 -0.705351
			-0.572547 -0.171604 -0.801712
			-0.970085  0.008614  0.242612
			-0.999285  0.004292  0.037564
			-0.987779  0.015314 -0.155107
			 0.994143  0.009753 -0.107629
			 0.995201  0.053456  0.081961
			-0.478684 -0.194748 -0.856116
			-0.226050 -0.199423 -0.953484
			-0.059790 -0.203318 -0.977286
			 0.077379 -0.223011 -0.971740
			 0.928473 -0.040994 -0.369129
			 0.969461 -0.008186 -0.245107
			 0.920265 -0.113281 -0.374538
			 0.902101 -0.172097 -0.395722
			 0.946647 -0.119703 -0.299217
			 0.803500 -0.219966 -0.553174
			 0.655613 -0.284039 -0.699638
			 0.380294 -0.160484 -0.910836
			 0.395063 -0.164956 -0.903723
			 0.289313 -0.247324 -0.924732
			 0.499354 -0.153819 -0.852635
			 0.465111 -0.163891 -0.869949
			 0.513192 -0.290265 -0.807701
			 0.408054 -0.255468 -0.876486
			 0.955308  0.074820  0.285988
			 0.919948  0.094564  0.380465
			 0.943320  0.095610  0.317815
			 0.876949  0.114465  0.466754
			 0.936722  0.064603  0.344060
			 0.955902  0.081180  0.282243
			 0.917789  0.129092 -0.375497
			 0.978056  0.127333 -0.164900
			 0.992953  0.044465 -0.109853
			 0.934936  0.109294 -0.337563
			 0.978644  0.086654  0.186405
			 0.978312  0.103870  0.179212
			 0.947956  0.111794  0.298129
			 0.887382  0.155836 -0.433899
			 0.921780  0.128200 -0.365904
			 0.938514  0.130499 -0.319626
			 0.905086  0.161589 -0.393330
			 0.963535  0.140273 -0.227868
			 0.966131  0.151058 -0.209221
			 0.883043  0.195365 -0.426693
			 0.803805  0.239105 -0.544725
			 0.982913 -0.004643  0.184011
			 0.751736 -0.009584  0.659395
			-0.620751 -0.004991  0.783992
			-0.641507 -0.017413  0.766919
			-0.845256  0.014855  0.534156
			-0.761031 -0.009059  0.648652
			-0.858659  0.032916  0.511489
			-0.504779 -0.009264  0.863199
			-0.588902 -0.029465  0.807667
			-0.495480 -0.014698  0.868495
			-0.528845  0.006171  0.848696
			-0.640059 -0.012401  0.768226
			-0.667879 -0.004755  0.744255
			-0.974644  0.047698  0.218616
			-0.983571  0.030426  0.177937
			-0.972465  0.047457 -0.228167
			-0.995928  0.076607  0.047530
			-0.887829  0.003885  0.460156
			-0.933970  0.058981 -0.352452
			-0.892694  0.056371 -0.447123
			-0.647849 -0.000280  0.761768
			-0.621796 -0.023087  0.782839
			-0.757348  0.008897  0.652950
			-0.744006  0.014249  0.668021
			-0.797980  0.012207  0.602560
			 0.756046  0.022955  0.654115
			 0.378165  0.101352 -0.920173
			-0.583472  0.139772 -0.800015
			-0.733465  0.164449 -0.659534
			-0.754136  0.112388 -0.647030
			-0.741809  0.062888 -0.667656
			-0.648265  0.216441 -0.730004
			-0.715561  0.070203 -0.695013
			-0.905160  0.064761 -0.420109
			-0.772690  0.053985 -0.632484
			-0.791565  0.054307 -0.608668
			-0.732248  0.064214 -0.678005
			-0.411598  0.276394 -0.868443
			-0.368408  0.179987 -0.912075
			 0.621923  0.266386 -0.736376
			 0.320109  0.242382 -0.915850
			 0.501175  0.258073 -0.825967
			-0.220161  0.254301 -0.941733
			 0.122474  0.087064 -0.988646
			 0.028443  0.149567 -0.988342
			 0.230212  0.152148 -0.961173
			-0.028257  0.213005 -0.976642
			 0.588968  0.271838 -0.761065
			 0.728586  0.267366 -0.630617
			-0.872003 -0.005093  0.489473
			-0.707700  0.039080  0.705431
			-0.787708  0.020706  0.615701
			-0.757097  0.018627  0.653037
			-0.544477 -0.000276  0.838776
			-0.644310 -0.004537  0.764751
			-0.581198  0.007054  0.813732
			-0.991490 -0.007725 -0.129956
			-0.996841 -0.045177 -0.065326
			-0.981887 -0.157851 -0.104795
			-0.996370 -0.075065 -0.040162
			-0.926903 -0.240351 -0.288241
			-0.885342 -0.184343 -0.426834
			-0.676201 -0.245927 -0.694458
			-0.765565 -0.268155 -0.584811
			-0.475166 -0.245563 -0.844936
			-0.956862  0.002907  0.290529
			-0.987438  0.032925  0.154538
			-0.999394 -0.022036  0.026946
			 0.972257  0.056029  0.227106
			 0.995627 -0.012219 -0.092615
			 0.934313  0.053284  0.352449
			-0.045817 -0.278227 -0.959422
			-0.246145 -0.272826 -0.930042
			 0.019954 -0.307919 -0.951203
			 0.985252 -0.170714 -0.011638
			 0.936207 -0.229465 -0.266198
			 0.998354 -0.057337  0.001294
			 0.866237 -0.275674 -0.416697
			 0.768738 -0.313840 -0.557267
			 0.744910 -0.267217 -0.611313
			 0.807579 -0.311212 -0.500963
			 0.373685 -0.326162 -0.868319
			 0.325813 -0.430037 -0.841971
			 0.185381 -0.442088 -0.877606
			 0.506475 -0.289588 -0.812171
			 0.825138  0.082107  0.558932
			 0.759075  0.098130  0.643565
			 0.828684  0.098355  0.551007
			 0.700994  0.110617  0.704537
			 0.974566  0.184883  0.126649
			 0.977407  0.151430  0.147460
			 0.942755  0.121368  0.310616
			 0.927270  0.101556  0.360356
			 0.900674  0.111216  0.420021
			 0.934480  0.127632  0.332351
			 0.839556  0.121110  0.529601
			 0.924117  0.153571 -0.349891
			 0.930864  0.136393 -0.338954
			 0.984106  0.124798 -0.126339
			 0.988546  0.146937 -0.034449
			 0.984909  0.158298 -0.069966
			 0.978992  0.149986  0.138125
			 0.876837  0.219305 -0.427858
			 0.929608  0.175155 -0.324266
			 0.973264  0.177120 -0.146242
			 0.807773  0.297422 -0.508962
			 0.661703  0.013821  0.749639
			-0.693612  0.007692  0.720308
			-0.487775 -0.000129  0.872969
			-0.695617 -0.002751  0.718407
			-0.462018 -0.019010  0.886667
			-0.382781  0.016741  0.923688
			-0.397776  0.009253  0.917436
			-0.401163  0.014143  0.915897
			-0.420855 -0.002370  0.907125
			-0.391043  0.004411  0.920362
			-0.246453  0.033854  0.968563
			-0.418293  0.020031  0.908092
			-0.554313  0.000575  0.832308
			-0.966800  0.017426  0.254939
			-0.887927  0.015072  0.459737
			-0.913867  0.105276  0.392129
			-0.917993  0.011384  0.396434
			-0.960498  0.060427 -0.271648
			-0.927764  0.163635  0.335376
			-0.970278  0.145891 -0.193074
			-0.974401  0.198264  0.105995
			-0.522490 -0.022434  0.852350
			-0.682994 -0.005294  0.730405
			-0.622286  0.031822  0.782142
			-0.678825 -0.007708  0.734260
			-0.644378 -0.038788  0.763722
			-0.538213  0.036777  0.842006
			-0.603759  0.027599  0.796689
			-0.673174  0.019807  0.739219
			-0.621423  0.025398  0.783064
			-0.780640  0.067651  0.621308
			-0.822064  0.135817 -0.552959
			-0.804561  0.168414 -0.569490
			-0.778483  0.100030 -0.619644
			-0.615279  0.314465 -0.722872
			-0.734515  0.219267 -0.642191
			-0.884281  0.078410 -0.460326
			-0.260970  0.351250 -0.899176
			-0.127962  0.360627 -0.923891
			-0.378765  0.391407 -0.838652
			 0.497610  0.208703 -0.841919
			-0.131042  0.322739 -0.937373
			-0.032485  0.272519 -0.961602
			 0.109760  0.204662 -0.972659
			 0.328267  0.163392 -0.930346
			 0.312366  0.094987 -0.945201
			 0.485568  0.147701 -0.861631
			 0.060191  0.241071 -0.968639
			 0.636280  0.233169 -0.735377
			-0.643327  0.067060  0.762649
			-0.777320  0.024460  0.628630
			-0.927503 -0.003096  0.373804
			-0.513525  0.037123  0.857271
			-0.641815  0.051900  0.765101
			-0.443131  0.064702  0.894119
			-0.485796  0.001231  0.874071
			-0.389231  0.016348  0.920995
			-0.418003  0.006320  0.908424
			-0.413314  0.024464  0.910260
			-0.341205  0.041041  0.939092
			-0.337966  0.024539  0.940838
			-0.340173  0.020730  0.940134
			-0.989410 -0.140749 -0.035475
			-0.946267 -0.315653  0.070305
			-0.974887 -0.221587  0.022227
			-0.947299 -0.298538 -0.116193
			-0.998507 -0.051651  0.017782
			-0.984064 -0.171652 -0.046403
			-0.989853 -0.110556  0.089271
			-0.995433 -0.059304  0.074814
			-0.877086 -0.317946 -0.360043
			-0.811627 -0.290759 -0.506675
			-0.415664 -0.280554 -0.865166
			-0.455399 -0.311451 -0.834032
			-0.695718 -0.283912 -0.659826
			-0.957614 -0.046649  0.284253
			-0.992658 -0.062525  0.103543
			 0.870155  0.084823  0.485424
			 0.799695  0.054286  0.597948
			 0.921753  0.023971  0.387037
			 0.976213  0.027879  0.215012
			 0.989486  0.031605  0.141136
			 0.824207  0.063419  0.562726
			-0.074219 -0.414849 -0.906858
			-0.267115 -0.353187 -0.896609
			-0.118090 -0.412342 -0.903343
			-0.032961 -0.477515 -0.878005
			 0.956387 -0.268554 -0.114899
			 0.945598 -0.281769  0.162638
			 0.923119 -0.228373  0.309349
			 0.987517 -0.100973  0.120895
			 0.963694 -0.153025  0.218807
			 0.980764  0.011862  0.194834
			 0.984033 -0.031770  0.175129
			 0.944792 -0.317274 -0.081882
			 0.887484 -0.306629 -0.344020
			 0.852551 -0.299650 -0.428214
			 0.880854 -0.158739 -0.445979
			 0.737613 -0.194441 -0.646622
			 0.527750 -0.356019 -0.771188
			 0.349237 -0.587656 -0.729859
			 0.018769 -0.549886 -0.835029
			 0.246242 -0.592434 -0.767064
			 0.609793  0.098515  0.786415
			 0.707369  0.090425  0.701037
			 0.573998  0.107248  0.811803
			 0.727139  0.108960  0.677787
			 0.639916  0.097808  0.762195
			 0.606717  0.097360  0.788933
			 0.966488  0.154762  0.204816
			 0.897472  0.127287  0.422306
			 0.916324  0.137621  0.376046
			 0.959421  0.107418  0.260715
			 0.876487  0.133048  0.462676
			 0.833616  0.108614  0.541560
			 0.746334  0.125829  0.653570
			 0.732898  0.114865  0.670572
			 0.754934  0.133103  0.642152
			 0.986634  0.133659  0.093212
			 0.965586  0.129139  0.225756
			 0.943766  0.164972  0.286515
			 0.938295  0.159578  0.306817
			 0.945299  0.182384 -0.270456
			 0.915755  0.266104 -0.300967
			 0.970720  0.192246  0.144029
			 0.983048  0.143706  0.113864
			 0.985217  0.149002 -0.084536
			 0.975983  0.170606  0.135462
			 0.838050  0.411963 -0.357714
			 0.709006  0.358006 -0.607571
			 0.888553  0.318223 -0.330465
			 0.879870  0.401840 -0.253680
			-0.610599  0.015524  0.791788
			-0.487526  0.030925  0.872560
			-0.418601  0.004235  0.908160
			-0.493273  0.012212  0.869789
			-0.458361 -0.005233  0.888751
			-0.152826  0.026034  0.987910
			-0.083989  0.030253  0.996007
			-0.504201  0.000073  0.863586
			-0.437158  0.004823  0.899372
			-0.323479 -0.005137  0.946221
			-0.233294  0.033713  0.971822
			-0.381079  0.009364  0.924495
			-0.253049  0.047059  0.966308
			-0.205043  0.014026  0.978653
			 0.146967  0.064965  0.987006
			 0.053846  0.053634  0.997108
			 0.089459  0.082794  0.992543
			-0.393504 -0.017732  0.919152
			-0.824264  0.115753  0.554247
			-0.783553  0.108812  0.611723
			-0.819607  0.166082  0.548326
			-0.932573  0.195535  0.303438
			-0.915213  0.192668 -0.353927
			-0.971498  0.222392 -0.082059
			-0.954322  0.193462  0.227688
			-0.542577 -0.007070  0.839976
			-0.442748 -0.003141  0.896640
			-0.467955  0.007342  0.883722
			-0.378880 -0.015716  0.925312
			-0.414517 -0.016913  0.909884
			-0.477135 -0.020097  0.878600
			-0.524120  0.015125  0.851510
			-0.631122  0.000986  0.775683
			-0.620409  0.049568  0.782710
			-0.575576  0.038241  0.816854
			-0.586128  0.012878  0.810116
			-0.453832  0.048263  0.889779
			-0.902130  0.078695 -0.424227
			-0.842496  0.015856 -0.538469
			-0.897665  0.063183 -0.436125
			-0.773934  0.183484 -0.606102
			-0.721132 -0.032419 -0.692038
			-0.702740  0.117965 -0.701598
			-0.837599  0.161857 -0.521758
			-0.782972  0.235052 -0.575938
			-0.600471  0.354319 -0.716863
			-0.846609  0.228292 -0.480765
			-0.504579  0.373459 -0.778414
			 0.080115  0.287428 -0.954446
			-0.080522  0.375850 -0.923175
			 0.022133  0.269789 -0.962665
			-0.457755  0.363082 -0.811561
			-0.208945  0.365461 -0.907072
			 0.244374  0.235189 -0.940727
			 0.427771  0.211654 -0.878757
			 0.471293  0.176718 -0.864091
			 0.522857  0.224446 -0.822341
			-0.584714  0.071616  0.808072
			-0.375428  0.101989  0.921223
			-0.333429  0.129034  0.933904
			-0.405371  0.099630  0.908707
			-0.774270  0.024302  0.632389
			-0.706638  0.060222  0.705008
			-0.852502  0.020223  0.522332
			-0.288829  0.073425  0.954561
			-0.354437 -0.008679  0.935040
			-0.298699  0.041134  0.953461
			-0.082495  0.074608  0.993795
			-0.145381  0.087260  0.985520
			-0.922413 -0.385786  0.018000
			-0.923369 -0.380997  0.047239
			-0.918725 -0.365137  0.150398
			-0.929189 -0.330556 -0.165348
			-0.951099 -0.287396 -0.113198
			-0.946635 -0.310417 -0.086738
			-0.894891 -0.341964 -0.286758
			-0.964072 -0.256530 -0.068974
			-0.912071 -0.059221  0.405734
			-0.936300 -0.033408  0.349608
			-0.873402 -0.162557  0.459068
			-0.963219 -0.219631  0.154825
			-0.908773 -0.037097  0.415638
			-0.726405 -0.237735 -0.644840
			-0.756509 -0.289356 -0.586487
			-0.743167 -0.224512 -0.630316
			-0.383561 -0.298707 -0.873873
			-0.627583 -0.239435 -0.740817
			-0.838395  0.004397  0.545045
			 0.910396  0.023283  0.413082
			 0.801345  0.027237  0.597582
			 0.601149  0.070676  0.796006
			 0.633953  0.053904  0.771491
			 0.593161  0.075407  0.801545
			 0.923701  0.025297  0.382277
			 0.919531  0.033227  0.391611
			-0.164086 -0.422322 -0.891471
			-0.197002 -0.483480 -0.852900
			-0.150995 -0.453759 -0.878239
			-0.093463 -0.523237 -0.847047
			-0.480102 -0.329180 -0.813106
			-0.558257 -0.244791 -0.792733
			-0.536695 -0.280490 -0.795791
			-0.141209 -0.527933 -0.837465
			-0.155043 -0.556316 -0.816379
			-0.207004 -0.495887 -0.843354
			-0.081126 -0.504678 -0.859487
			 0.931146 -0.269375  0.245774
			 0.918322 -0.176132  0.354490
			 0.950981 -0.063681  0.302623
			 0.963342  0.017722  0.267692
			 0.921109  0.024791  0.388515
			 0.932430 -0.344293 -0.109710
			 0.931226 -0.234557 -0.278930
			 0.874136 -0.124974 -0.469328
			 0.877752 -0.203225 -0.433879
			 0.883841 -0.155423 -0.441213
			 0.761664 -0.260750 -0.593192
			 0.661164 -0.450217 -0.600138
			 0.477722 -0.583137 -0.657064
			 0.347728 -0.569905 -0.744509
			 0.049199 -0.580090 -0.813065
			 0.307384 -0.488787 -0.816457
			 0.345024  0.088618  0.934401
			 0.533900  0.079632  0.841790
			 0.443148  0.087526  0.892165
			 0.643080  0.113451  0.757349
			 0.493505  0.078306  0.866211
			 0.970037  0.074768  0.231165
			 0.926510  0.103572  0.361734
			 0.906298  0.148590  0.395657
			 0.807835  0.127638  0.575423
			 0.647332  0.111699  0.753979
			 0.464959  0.090674  0.880677
			 0.656469  0.106405  0.746811
			 0.961399  0.148307  0.231769
			 0.925879  0.139634  0.351071
			 0.907958  0.135664  0.396493
			 0.937802  0.164926  0.305493
			 0.963927  0.208696 -0.165197
			 0.969682  0.180059 -0.165212
			 0.982666  0.176495 -0.056720
			 0.961136  0.274757 -0.026939
			 0.932880  0.354067 -0.066109
			 0.960467  0.138749  0.241356
			 0.978148  0.187749  0.089310
			 0.950934  0.185331  0.247744
			 0.758874  0.452889 -0.467977
			 0.844997  0.497395 -0.196414
			 0.618629  0.376634 -0.689525
			 0.531608  0.299388 -0.792313
			 0.911888  0.409442 -0.028590
			-0.419697  0.022228  0.907392
			-0.532113 -0.025392  0.846292
			-0.429281 -0.011509  0.903098
			 0.334620  0.100237  0.937007
			-0.269580 -0.031493  0.962463
			-0.013295  0.017035  0.999767
			 0.081630  0.073109  0.993978
			 0.089082  0.058123  0.994327
			-0.438040 -0.011986  0.898876
			-0.491484 -0.044430  0.869752
			-0.372687 -0.038390  0.927163
			 0.121220  0.071052  0.990079
			 0.099160  0.072186  0.992450
			 0.024265  0.060888  0.997850
			 0.311536  0.063460  0.948113
			-0.681616  0.095080  0.725506
			-0.847591  0.197543  0.492511
			-0.664388  0.169095  0.728008
			-0.924727  0.239374 -0.295939
			-0.977870  0.192927  0.080927
			-0.953246  0.099652  0.285293
			-0.911700  0.125515  0.391214
			-0.873574  0.171413  0.455507
			-0.562329 -0.012351  0.826821
			-0.574229 -0.002828  0.818689
			-0.445630  0.008851  0.895173
			-0.410184  0.026146  0.911628
			-0.390238  0.008479  0.920675
			-0.455177  0.012414  0.890314
			-0.405594 -0.012589  0.913967
			-0.403975 -0.055014  0.913114
			-0.450858 -0.047783  0.891316
			-0.402039 -0.037773  0.914843
			-0.499180 -0.053623  0.864837
			-0.467966 -0.011397  0.883673
			-0.528938  0.080814  0.844804
			-0.611341  0.016903  0.791187
			-0.922450 -0.106046 -0.371268
			-0.921384  0.077578 -0.380832
			-0.873773 -0.044712 -0.484274
			-0.948893 -0.057849 -0.310250
			-0.944391  0.125973 -0.303737
			-0.984262  0.065234 -0.164232
			-0.693468  0.137383 -0.707268
			-0.719894 -0.185120 -0.668942
			-0.757101 -0.053711 -0.651086
			-0.728244  0.009723 -0.685249
			-0.792528  0.040298 -0.608503
			-0.732837 -0.211500 -0.646698
			-0.807233  0.214800 -0.549759
			-0.902167  0.191053 -0.386772
			-0.769034  0.359108 -0.528798
			-0.572478  0.402667 -0.714233
			-0.385076  0.385249 -0.838630
			-0.451642  0.368165 -0.812695
			-0.964813  0.229467 -0.128379
			-0.892165  0.298613 -0.338927
			 0.049290  0.288028 -0.956353
			 0.163361  0.200189 -0.966042
			-0.189755  0.336479 -0.922374
			 0.296972  0.289855 -0.909830
			 0.295749  0.270778 -0.916085
			 0.260365  0.289179 -0.921187
			 0.222301  0.209406 -0.952224