<?xml version="1.0"?>
<VTKFile type="PolyData" version="0.1" byte_order="LittleEndian" compressor="vtkZLibDataCompressor">
	<PolyData>
		<Piece NumberOfPoints="1122" NumberOfVerts="0" NumberOfLines="0" NumberOfStrips="0" NumberOfPolys="2240">
		<PointData Normals="Normals">
		<DataArray type="Float32" Name="Normals" NumberOfComponents="3" format="ascii">
			-0.053779  0.978710  0.198080
			-0.190246  0.976978 -0.096539
			-0.395945  0.905672  0.151608
			-0.202291  0.879051  0.431679
			 0.100878  0.958975 -0.264936
			 0.310524  0.948675 -0.059917
			 0.180639  0.894375  0.409222
			-0.099860  0.857776 -0.504231
			-0.373987  0.876583  0.302878
			-0.225669  0.898058  0.377578
			-0.440257  0.821854  0.361566
			-0.285425  0.927845  0.240076
			-0.342093  0.920046  0.191017
			-0.290392  0.956397 -0.031262
			-0.318336  0.919680  0.229894
			-0.100069  0.920427 -0.377890
			-0.165825  0.925602  0.340240
			 0.129563  0.920030  0.369807
			-0.159738  0.892956  0.420848
			 0.258456  0.803267 -0.536621
			 0.271180  0.904085  0.330291
			 0.388855  0.804689 -0.448628
			 0.388439  0.886011 -0.253180
			 0.205451  0.824087  0.527892
			-0.111203  0.809076 -0.577087
			 0.185463  0.726980 -0.661138
			 0.071476  0.749007 -0.658696
			 0.596689  0.773454  0.213848
			-0.290612  0.943429  0.159642
			 0.759062  0.579953  0.295769
			-0.184647  0.981369  0.053101
			-0.170455  0.926533  0.335383
			-0.045120  0.969442  0.241135
			-0.101820  0.985529 -0.135521
			-0.185497  0.972546 -0.140514
			-0.109659  0.957591  0.266447
			 0.063417  0.642903 -0.763318
			 0.069183  0.763719 -0.641831
			-0.135048  0.869317 -0.475447
			 0.102694  0.994491  0.021019
			-0.067517  0.971929  0.225377
			 0.311551  0.939331  0.143507
			 0.127467  0.911987  0.389912
			 0.299572  0.913454  0.275423
			 0.943569  0.303633  0.132232
			 0.363603  0.632820 -0.683617
			 0.423907  0.716488 -0.554028
			 0.169768  0.889199  0.424857
			 0.260424  0.965478 -0.005585
			 0.304726  0.859759 -0.409826
			 0.126418  0.590714 -0.796916
			 0.212360  0.554715 -0.804484
			-0.034088  0.998962 -0.030222
			-0.180882  0.940029 -0.289185
			 0.086364  0.986842  0.136694
			 0.066931  0.865969 -0.495598
			 0.372894  0.873791 -0.312154
			-0.066157  0.783227 -0.618207
			-0.177892  0.788183 -0.589171
			-0.252623  0.828988 -0.498959
			-0.304174  0.926402 -0.221941
			-0.190819  0.980852  0.038956
			-0.346726  0.935119 -0.073026
			-0.450708  0.889926 -0.069965
			-0.035446  0.582999 -0.811699
			 0.057408  0.192502 -0.979616
			 0.035757  0.233056 -0.971806
			 0.060558  0.456405 -0.887709
			 0.390342  0.915723 -0.095314
			 0.303936  0.952299  0.027396
			 0.271644  0.943881  0.187879
			 0.192740  0.938290  0.287163
			 0.043944  0.995978  0.078087
			-0.077638  0.977751  0.194874
			-0.020872  0.944804  0.326972
			 0.065007  0.934445  0.350124
			 0.493245  0.312430 -0.811848
			 0.323758  0.346583 -0.880376
			 0.525360  0.455010 -0.719001
			 0.305051  0.286829 -0.908115
			 0.397023  0.692477 -0.602370
			 0.331251  0.934709 -0.128811
			 0.270297  0.888403 -0.371053
			 0.175842  0.967055  0.184076
			 0.354569  0.678795 -0.643053
			 0.176377  0.201406 -0.963497
			 0.106894  0.990428 -0.087330
			-0.042611  0.948393 -0.314220
			-0.112142  0.916330 -0.384400
			-0.150146  0.841110 -0.519606
			 0.086659  0.990116 -0.110271
			 0.422726  0.830287 -0.363218
			 0.006876  0.896238 -0.443521
			-0.176602  0.811376 -0.557208
			 0.487959  0.841167 -0.233096
			-0.051462  0.519522 -0.852906
			-0.172385  0.579707 -0.796381
			-0.504274  0.727346 -0.465484
			-0.400625  0.530574 -0.746988
			-0.657666  0.719670 -0.222599
			-0.874071  0.458318 -0.161076
			-0.844623  0.505819 -0.175381
			-0.884702  0.402513 -0.235128
			-0.888337  0.453364 -0.072931
			-0.709905  0.681402 -0.178117
			-0.329846  0.943939 -0.013435
			 0.062251  0.992862 -0.101735
			 0.120736 -0.052795 -0.991280
			 0.164622 -0.160937 -0.973139
			-0.073800 -0.063670 -0.995239
			-0.112002  0.212781 -0.970660
			 0.288935  0.945177 -0.152173
			 0.460824  0.837946 -0.292382
			 0.152807  0.960807 -0.231301
			-0.003505  0.989637 -0.143546
			-0.064756  0.997880  0.006560
			-0.052775  0.979726  0.193265
			 0.095590  0.955327  0.279667
			 0.084676  0.976523  0.198071
			 0.410897 -0.067059 -0.909212
			 0.529156  0.056226 -0.846660
			 0.532674  0.403517 -0.743931
			 0.286712 -0.111840 -0.951466
			 0.428160  0.801654 -0.417169
			 0.326807  0.945089  0.002006
			 0.423455  0.392422 -0.816511
			 0.477551  0.370116 -0.796844
			 0.473883  0.550237 -0.687513
			 0.180289 -0.191934 -0.964706
			-0.093283  0.905119 -0.414799
			-0.153687  0.984560 -0.083799
			-0.328209  0.902316 -0.279471
			 0.137540  0.977333 -0.160942
			 0.451163  0.867706 -0.208657
			-0.396262  0.874784 -0.278800
			-0.344056  0.933443 -0.101537
			-0.322719  0.287319 -0.901832
			-0.575368  0.302798 -0.759780
			-0.692626  0.536276 -0.482367
			-0.849585  0.353905 -0.391097
			-0.911977  0.396362 -0.105805
			-0.941793  0.310922 -0.127879
			-0.944036  0.321833 -0.072250
			-0.943313  0.318737 -0.092554
			-0.938021  0.221855 -0.266264
			-0.739831  0.103639 -0.664762
			-0.788636  0.606097 -0.103439
			-0.752518  0.648968  0.112064
			-0.296058  0.950238  0.096944
			-0.647922  0.741283  0.175206
			 0.302099 -0.195940 -0.932922
			 0.072323 -0.197349 -0.977662
			 0.425030 -0.212458 -0.879893
			 0.262030 -0.331633 -0.906289
			-0.342794  0.112652 -0.932631
			-0.373974 -0.046557 -0.926270
			-0.107864 -0.197683 -0.974314
			 0.008435 -0.324044 -0.946004
			 0.336495  0.890690 -0.305683
			 0.506597  0.849601 -0.146756
			 0.527560  0.849422  0.012776
			 0.315274  0.928026 -0.198419
			 0.190330  0.979746 -0.062226
			 0.176581  0.984118  0.018186
			 0.190006  0.981776 -0.003636
			 0.051745  0.998320 -0.026077
			 0.283397  0.954137  0.096478
			 0.112590  0.981403  0.155473
			 0.424453  0.905414  0.008052
			 0.418936 -0.258979 -0.870300
			 0.305408 -0.265946 -0.914330
			 0.233659 -0.254160 -0.938513
			 0.441996 -0.146217 -0.885020
			 0.518718  0.111113 -0.847694
			 0.123161 -0.364907 -0.922862
			 0.500670  0.823555 -0.266620
			 0.643145  0.519281 -0.562771
			 0.588726  0.326016 -0.739673
			-0.262307  0.963632 -0.051068
			-0.567708  0.801052  0.189800
			-0.614685  0.699831  0.363867
			 0.177326  0.932661  0.314164
			-0.250322  0.922818  0.292823
			-0.560773  0.802453  0.203969
			-0.782918  0.273880 -0.558596
			-0.945353  0.159697 -0.284262
			-0.952106  0.137038 -0.273339
			-0.981920  0.188368 -0.018739
			-0.969134  0.241899  0.047576
			-0.954402  0.298123  0.015491
			-0.866651 -0.010780 -0.498799
			-0.676374 -0.082743 -0.731896
			-0.916063  0.290017  0.276981
			-0.787087  0.484366  0.381947
			 0.201283 -0.286782 -0.936611
			 0.315650 -0.275605 -0.907969
			 0.016114 -0.325167 -0.945519
			 0.254217 -0.159052 -0.953979
			 0.323006 -0.272321 -0.906371
			-0.442089 -0.174707 -0.879792
			-0.217935 -0.208650 -0.953399
			 0.056745 -0.260700 -0.963751
			-0.028832 -0.252952 -0.967049
			 0.045879 -0.396693 -0.916804
			 0.052288 -0.370854 -0.927218
			-0.047431 -0.280874 -0.958572
			 0.118031 -0.310861 -0.943098
			-0.116376 -0.300056 -0.946796
			 0.429519  0.901784  0.047946
			 0.198303  0.906040  0.373854
			 0.286242  0.812835  0.507312
			 0.317381  0.842691  0.434904
			 0.269344  0.876103  0.399872
			 0.435941  0.874466  0.212756
			 0.256474  0.661197  0.705010
			 0.600617  0.676224  0.426593
			 0.427147  0.873078  0.235117
			 0.446560  0.869212  0.212263
			 0.659402  0.688078  0.302883
			 0.423275  0.899618  0.107362
			 0.556737  0.824502 -0.101196
			 0.911073  0.411771 -0.019785
			 0.967840  0.250055 -0.027524
			 0.428317 -0.261569 -0.864943
			 0.357230 -0.334545 -0.872047
			 0.233576 -0.325134 -0.916368
			 0.154709 -0.290766 -0.944204
			 0.428631 -0.192746 -0.882680
			 0.618689 -0.060168 -0.783329
			 0.697754  0.194276 -0.689490
			 0.499430 -0.206838 -0.841301
			 0.083126 -0.254919 -0.963383
			 0.713075  0.561472 -0.419849
			 0.466880  0.868569 -0.166168
			 0.779598  0.290380 -0.554893
			-0.690396  0.646401  0.324837
			-0.752721  0.455215  0.475595
			-0.734829  0.424924  0.528645
			-0.202341  0.814881  0.543164
			-0.172220  0.738620  0.651752
			-0.451989  0.780205  0.432419
			-0.639867  0.676498  0.364582
			-0.888595 -0.107517 -0.445913
			-0.964959 -0.051164 -0.257364
			-0.995507 -0.021407 -0.092232
			-0.997596 -0.022679  0.065483
			-0.965618  0.128769  0.225832
			-0.796873 -0.171121 -0.579405
			-0.657255 -0.211691 -0.723328
			-0.926298  0.054469  0.372835
			-0.909544  0.021632  0.415045
			-0.841966  0.226883  0.489507
			 0.274089 -0.310975 -0.910038
			 0.436388 -0.293279 -0.850619
			 0.410483 -0.287335 -0.865414
			 0.150619 -0.323765 -0.934072
			-0.466191 -0.277474 -0.840044
			-0.300316 -0.260496 -0.917580
			 0.116053 -0.291622 -0.949468
			 0.067172 -0.217429 -0.973762
			-0.356988 -0.206497 -0.910999
			-0.523684 -0.270730 -0.807750
			 0.178153  0.751889  0.634763
			 0.078816  0.743446  0.664136
			 0.266928  0.534100  0.802176
			 0.176459  0.587603  0.789674
			 0.487734  0.680630  0.546679
			 0.328129  0.558200  0.762065
			 0.327743  0.310897  0.892148
			 0.336150  0.276003  0.900459
			 0.685661  0.548575  0.478470
			 0.671292  0.269501  0.690461
			 0.646976  0.441932  0.621385
			 0.703141  0.611102  0.363519
			 0.652564  0.665261  0.362750
			 0.613359  0.734010  0.291583
			 0.538698  0.824554  0.172964
			 0.511349  0.854670  0.089787
			 0.760223  0.372966  0.531937
			 0.716991  0.417645  0.558119
			 0.765694  0.467013  0.442279
			 0.768617  0.637797 -0.049418
			 0.491811 -0.348532 -0.797902
			 0.462486 -0.344129 -0.817118
			 0.462589 -0.323903 -0.825286
			 0.421351 -0.294920 -0.857604
			 0.330651 -0.323499 -0.886577
			 0.779646 -0.213582 -0.588673
			 0.778192 -0.001125 -0.628026
			 0.618537 -0.248626 -0.745384
			 0.859986  0.256971 -0.440896
			 0.836486  0.409806 -0.363799
			 0.610237  0.753340 -0.245133
			-0.783498  0.419966  0.457995
			-0.786523  0.284494  0.548128
			-0.800026  0.124972  0.586804
			-0.454019  0.742438  0.492598
			-0.292594  0.520359  0.802256
			-0.477028  0.559031  0.678180
			-0.121626  0.580529  0.805105
			-0.671164  0.651267  0.354104
			-0.894435 -0.164786 -0.415731
			-0.934021 -0.233180 -0.270616
			-0.975580 -0.157656 -0.152936
			-0.956138 -0.012120  0.292665
			-0.986109 -0.161182  0.040111
			-0.800424 -0.238566 -0.549915
			-0.678096 -0.275343 -0.681449
			-0.869989 -0.098391  0.483154
			-0.901179  0.029109  0.432468
			-0.897784 -0.119805  0.423828
			-0.822045  0.082562  0.563405
			 0.868104 -0.162374 -0.469074
			 0.332621 -0.244919 -0.910702
			 0.880446 -0.167562 -0.443551
			 0.169357 -0.213087 -0.962243
			 0.137184 -0.241761 -0.960589
			 0.165018 -0.194957 -0.966830
			 0.021863 -0.105860 -0.994141
			-0.774242 -0.235012 -0.587639
			-0.772373 -0.237629 -0.589043
			-0.589972 -0.221853 -0.776347
			-0.836729 -0.251048 -0.486683
			 0.170983  0.620487  0.765350
			 0.039409  0.493839  0.868660
			 0.206000  0.399266  0.893393
			 0.110878  0.402833  0.908533
			 0.536344  0.430391  0.726016
			 0.324079  0.008396  0.945993
			 0.316224  0.174897  0.932423
			 0.507338  0.101014  0.855806
			 0.528877  0.264119  0.806554
			 0.522689  0.059432  0.850449
			 0.692182  0.201235  0.693101
			 0.647374  0.236584  0.724524
			 0.574134  0.075518  0.815271
			 0.897829  0.361762  0.251060
			 0.808614  0.535965  0.242662
			 0.850888  0.522338  0.056145
			 0.639795  0.768113 -0.025780
			 0.504369  0.856793 -0.107322
			 0.832099  0.256597  0.491700
			 0.943975  0.215501  0.249940
			 0.493988 -0.341884 -0.799432
			 0.536257 -0.347994 -0.768979
			 0.477139 -0.304999 -0.824205
			 0.384680 -0.215141 -0.897628
			 0.440966 -0.263811 -0.857877
			 0.647941 -0.239544 -0.723043
			 0.849168 -0.094087 -0.519674
			 0.923300  0.077359 -0.376209
			 0.949566  0.290108 -0.118998
			 0.815597  0.534994 -0.220415
			-0.712725  0.100143  0.694258
			-0.704550  0.210007  0.677869
			-0.732341  0.465879  0.496621
			-0.802787  0.009396  0.596192
			-0.680701 -0.115908  0.723334
			-0.693337 -0.191882  0.694597
			-0.591232  0.639054  0.491991
			-0.304201  0.444185  0.842711
			-0.350997  0.317608  0.880867
			-0.255637  0.404772  0.877957
			-0.618633  0.426326  0.659954
			-0.600044  0.537578  0.592416
			 0.204798  0.406504  0.890400
			-0.120054  0.337813  0.933525
			-0.892332 -0.248749 -0.376654
			-0.952898 -0.272709 -0.132723
			-0.964402 -0.229465  0.131432
			-0.805553 -0.240021 -0.541732
			-0.800509 -0.144111  0.581736
			-0.776209 -0.173282  0.606196
			-0.838394 -0.058453  0.541921
			-0.843973 -0.158067  0.512566
			-0.821803 -0.153892  0.548596
			 0.317635 -0.173025 -0.932293
			 0.170700 -0.165082 -0.971396
			 0.187996 -0.123757 -0.974342
			 0.294052 -0.074368 -0.952892
			-0.286651 -0.175413 -0.941839
			 0.235671 -0.118091 -0.964631
			-0.942921 -0.262989 -0.204296
			-0.861721 -0.259249 -0.436151
			-0.716021 -0.269489 -0.643964
			-0.905954 -0.252324 -0.339972
			-0.944236 -0.280004 -0.173253
			 0.004744  0.238053  0.971240
			 0.109420  0.172632  0.978890
			 0.421190 -0.051505  0.905509
			 0.129196 -0.093741  0.987178
			 0.122734 -0.152657  0.980629
			 0.223768 -0.123167  0.966829
			 0.644159  0.067536  0.761904
			 0.624341 -0.020923  0.780872
			 0.404083 -0.074218  0.911707
			 0.793840  0.082026  0.602569
			 0.990664  0.124142  0.056339
			 0.997081  0.050364  0.057393
			 0.926124  0.069787  0.370707
			 0.993624  0.015269  0.111705
			 0.476803 -0.331000 -0.814308
			 0.457861 -0.294618 -0.838787
			 0.508657 -0.268328 -0.818088
			 0.434125 -0.225346 -0.872212
			 0.344507 -0.135609 -0.928937
			 0.519096 -0.311277 -0.796019
			 0.389482 -0.191522 -0.900901
			 0.862935 -0.156935 -0.480327
			 0.689543 -0.211387 -0.692709
			 0.503139 -0.263369 -0.823097
			 0.977584 -0.035911 -0.207460
			 0.988957  0.095481 -0.113347
			-0.445005  0.146997  0.883381
			-0.592597  0.067596  0.802658
			-0.537281 -0.069020  0.840575
			-0.715635 -0.243240  0.654752
			-0.660416 -0.224551  0.716538
			-0.685087 -0.280205  0.672414
			-0.682500 -0.313480  0.660246
			-0.629326 -0.226178  0.743500
			-0.614902 -0.258737  0.744950
			-0.485958 -0.146290  0.861652
			-0.405546  0.222192  0.886659
			-0.323095  0.252742  0.911993
			 0.946645  0.120900  0.298741
			-0.291418  0.175539  0.940352
			-0.360220  0.056546  0.931152
			-0.197849  0.228369  0.953259
			 0.747558  0.139850  0.649307
			-0.108053  0.039887  0.993345
			-0.945694 -0.270525  0.180222
			-0.851770 -0.193500  0.486874
			-0.783820 -0.121870  0.608913
			-0.712112 -0.144867  0.686957
			-0.675585 -0.197392  0.710367
			-0.709033 -0.233699  0.665325
			-0.764175 -0.158638  0.625196
			 0.261066 -0.123721 -0.957360
			 0.549131 -0.169991 -0.818265
			 0.507757 -0.128059 -0.851929
			 0.143811 -0.126973 -0.981426
			 0.349220 -0.078264 -0.933767
			 0.196636 -0.183658 -0.963122
			 0.153948 -0.170578 -0.973244
			-0.317458 -0.211184 -0.924457
			-0.127274 -0.281374 -0.951120
			-0.117169 -0.199100 -0.972949
			-0.950552 -0.279302 -0.135797
			-0.943058 -0.325494 -0.068526
			-0.933064 -0.273093 -0.234121
			-0.937737 -0.347304 -0.005461
			-0.872908 -0.288832 -0.393203
			-0.490593 -0.274628 -0.826981
			-0.768689 -0.269489 -0.580081
			-0.923037 -0.260141 -0.283426
			-0.018586 -0.174586  0.984467
			-0.030835 -0.169428  0.985060
			 0.340243 -0.084183  0.936562
			 0.086359 -0.105945  0.990615
			 0.859933 -0.068360  0.505808
			 0.431249 -0.081614  0.898534
			 0.701635 -0.118980  0.702533
			 0.834671 -0.122706  0.536905
			 0.986279 -0.115352 -0.118098
			 0.981970 -0.079900  0.171321
			 0.463270 -0.244742 -0.851752
			 0.576325 -0.202921 -0.791627
			 0.411246 -0.123866 -0.903069
			 0.291195 -0.172421 -0.940998
			 0.593529 -0.155460 -0.789655
			 0.881934 -0.194498 -0.429376
			 0.638552 -0.222968 -0.736571
			-0.466014  0.117858  0.876893
			-0.607796 -0.195532  0.769644
			-0.629745 -0.254347  0.733981
			-0.406854 -0.262885  0.874849
			-0.217047 -0.098502  0.971179
			-0.234245 -0.190155  0.953399
			-0.902009 -0.269788  0.337038
			-0.814929 -0.095207  0.571688
			-0.755371 -0.071905  0.651340
			-0.643195 -0.100969  0.759016
			 0.463007 -0.102935 -0.880357
			 0.595393 -0.160062 -0.787329
			 0.517207 -0.110622 -0.848681
			 0.077079 -0.118553 -0.989951
			 0.277778 -0.114184 -0.953835
			 0.032573 -0.154987 -0.987379
			 0.250529 -0.177913 -0.951621
			 0.188175 -0.189194 -0.963741
			 0.108753 -0.153228 -0.982188
			-0.031992 -0.292614 -0.955695
			-0.088186 -0.203743 -0.975045
			-0.514634 -0.279237 -0.810665
			-0.911288 -0.401330 -0.092138
			-0.968045 -0.235484 -0.086234
			-0.966015 -0.244874 -0.082778
			 0.850206 -0.526428  0.004761
			 0.987145 -0.159096  0.015260
			-0.819689 -0.247630 -0.516517
			-0.918652 -0.209283 -0.335081
			-0.971103 -0.226203 -0.076095
			-0.973743 -0.186053 -0.131180
			-0.026656 -0.155480  0.987479
			-0.120868 -0.228031  0.966123
			 0.404369 -0.040776  0.913686
			 0.333096 -0.045026  0.941817
			 0.394567 -0.024635  0.918537
			 0.085837 -0.054533  0.994816
			-0.158121 -0.138687  0.977632
			 0.965470 -0.164880  0.201699
			 0.686178 -0.104406  0.719902
			 0.884166 -0.162691  0.437930
			 0.988006 -0.150223 -0.035725
			 0.972649 -0.190416 -0.133021
			 0.743641 -0.247298 -0.621162
			 0.512928 -0.215360 -0.830978
			 0.361053 -0.210137 -0.908561
			 0.373859 -0.121382 -0.919508
			 0.563507 -0.125896 -0.816462
			 0.881813 -0.213648 -0.420429
			 0.956379 -0.180595 -0.229619
			 0.819572 -0.141934 -0.555118
			 0.965747 -0.115102 -0.232560
			 0.934728 -0.221010 -0.278278
			-0.483372 -0.103903  0.869227
			-0.369864 -0.120724  0.921209
			-0.459018 -0.268213  0.846974
			-0.385547 -0.241666  0.890478
			-0.295420 -0.268361  0.916902
			-0.970906 -0.233518  0.053010
			 0.125503 -0.966842 -0.222408
			-0.925099 -0.152445  0.347782
			-0.835032 -0.088888  0.542974
			-0.751248 -0.045552  0.658446
			-0.687919 -0.041683  0.724590
			-0.518227 -0.028716  0.854761
			-0.609999 -0.048936  0.790890
			 0.543775 -0.091148 -0.834267
			 0.599974 -0.076436 -0.796360
			 0.237241 -0.093869 -0.966905
			 0.081669 -0.092671 -0.992342
			 0.464024 -0.090408 -0.881197
			 0.156517 -0.119174 -0.980459
			-0.237075 -0.181435 -0.954399
			 0.027366 -0.111904 -0.993342
			-0.347641 -0.324003 -0.879868
			-0.504671 -0.347941 -0.790091
			-0.745814 -0.261958 -0.612486
			-0.967580 -0.210412  0.139703
			-0.938431 -0.185894 -0.291189
			-0.977718 -0.186164  0.097005
			-0.985752 -0.166028  0.026985
			-0.055746 -0.190173  0.980167
			-0.174301 -0.214004  0.961156
			 0.500033 -0.075729  0.862689
			 0.284477 -0.022487  0.958419
			-0.106295 -0.048541  0.993149
			-0.314169 -0.052486  0.947915
			 0.957357 -0.192935  0.215041
			 0.976456 -0.176990 -0.123321
			 0.978624 -0.173974 -0.109673
			 0.854952 -0.167329  0.490977
			 0.736169 -0.162292  0.657052
			 0.879884 -0.149660  0.451006
			 0.974117 -0.184600 -0.130455
			 0.869536 -0.209256 -0.447347
			 0.521868 -0.155385 -0.838755
			 0.342108 -0.133837 -0.930080
			 0.461699 -0.094984 -0.881936
			 0.978615 -0.190546 -0.077494
			 0.927821 -0.155545  0.339049
			 0.952195 -0.203843  0.227537
			 0.982385 -0.170595 -0.076271
			-0.392230 -0.038960  0.919042
			-0.914595 -0.162594  0.370243
			-0.760834 -0.055741  0.646548
			-0.803071 -0.095845  0.588125
			-0.679320 -0.040565  0.732720
			-0.664103 -0.052375  0.745804
			-0.493032 -0.015980  0.869864
			-0.367329 -0.000101  0.930091
			-0.324015 -0.023319  0.945765
			 0.628606 -0.075932 -0.774009
			 0.341481 -0.067094 -0.937491
			 0.301468 -0.052389 -0.952036
			 0.023263 -0.048724 -0.998541
			 0.265816 -0.041629 -0.963125
			 0.610438 -0.075230 -0.788483
			 0.540594 -0.068019 -0.838529
			-0.066430 -0.050388 -0.996518
			-0.474350 -0.088019 -0.875925
			-0.606818 -0.129760 -0.784177
			-0.440765 -0.093633 -0.892726
			-0.665332 -0.209767 -0.716471
			-0.893801 -0.211403 -0.395510
			-0.978885 -0.176198 -0.103631
			-0.921278 -0.148067  0.359614
			-0.960649 -0.149744  0.233945
			-0.935390 -0.137495  0.325793
			 0.628553 -0.137085  0.765590
			 0.605231 -0.063334  0.793527
			 0.453598 -0.006133  0.891185
			 0.146195  0.023464  0.988977
			 0.491375  0.016490  0.870792
			-0.191167  0.002623  0.981554
			 0.844843 -0.168600  0.507753
			 0.773488 -0.188057  0.605269
			 0.837305 -0.182098 -0.515519
			 0.982805 -0.170521  0.070831
			 0.687159 -0.201997 -0.697861
			 0.483061 -0.230095 -0.844813
			 0.457572 -0.193351 -0.867896
			 0.385554 -0.162856 -0.908199
			 0.383870 -0.216270 -0.897703
			 0.584362 -0.076859 -0.807845
			 0.938923 -0.159252  0.305063
			 0.797709 -0.114796  0.592015
			 0.751055 -0.159969  0.640567
			-0.807864 -0.086475  0.582991
			-0.542842 -0.051649  0.838245
			-0.729648 -0.078661  0.679284
			-0.178102 -0.028490  0.983599
			-0.404906 -0.066843  0.911912
			-0.075471  0.001912  0.997146
			 0.511283 -0.059783 -0.857331
			 0.527970 -0.043894 -0.848128
			 0.454453 -0.047303 -0.889514
			 0.113102 -0.004451 -0.993574
			-0.111427 -0.001480 -0.993772
			 0.045757 -0.000956 -0.998952
			 0.366424 -0.027432 -0.930043
			 0.485343 -0.007189 -0.874294
			 0.315926  0.003351 -0.948778
			 0.220056  0.035472 -0.974842
			-0.623721 -0.125054 -0.771579
			-0.899439 -0.100486 -0.425338
			-0.867905 -0.220584 -0.445066
			-0.784948 -0.037377 -0.618434
			-0.534948 -0.088233 -0.840265
			-0.486973 -0.123134 -0.864694
			-0.987191 -0.148658 -0.057918
			-0.975993 -0.175192  0.129401
			-0.849758 -0.107929  0.516007
			-0.869631 -0.118150  0.479357
			-0.861986 -0.110035  0.494846
			-0.937555 -0.132034  0.321803
			 0.611636 -0.057811  0.789024
			 0.737676 -0.092797  0.668747
			 0.420183  0.023083  0.907146
			 0.608325 -0.029797  0.793128
			 0.213177  0.021407  0.976779
			 0.046845 -0.024541  0.998601
			 0.947496 -0.143720 -0.285649
			 0.947821 -0.029912  0.317397
			 0.871652 -0.117369  0.475864
			 0.861741 -0.035919  0.506075
			 0.763379 -0.194439 -0.615992
			 0.551096 -0.110583 -0.827082
			 0.390339 -0.203738 -0.897845
			 0.540832 -0.119306 -0.832627
			-0.562346 -0.066926  0.824189
			-0.708865 -0.090219  0.699551
			-0.600809 -0.061584  0.797017
			-0.648818 -0.097129  0.754719
			-0.720121 -0.084195  0.688721
			-0.256428 -0.042203  0.965642
			 0.144644  0.000132  0.989484
			 0.096897  0.002408  0.995291
			-0.530380 -0.057012  0.845841
			 0.543071 -0.027470 -0.839237
			 0.891826 -0.014342 -0.452152
			 0.912759 -0.022597 -0.407874
			 0.632175 -0.022554 -0.774497
			 0.238730  0.036048 -0.970417
			-0.138809  0.078662 -0.987190
			 0.029782  0.056990 -0.997930
			-0.601562  0.058850 -0.796656
			 0.548571  0.037691 -0.835254
			 0.061212  0.033049 -0.997578
			 0.389371  0.000689 -0.921081
			 0.822982 -0.001027 -0.568066
			 0.343773  0.067516 -0.936622
			 0.399810  0.020633 -0.916366
			 0.478255  0.085326 -0.874066
			 0.040603  0.089687 -0.995142
			-0.051919  0.047709 -0.997511
			 0.823531  0.031437 -0.566399
			 0.948368  0.012041 -0.316945
			-0.998736 -0.040905  0.029202
			-0.852868  0.006589 -0.522084
			-0.974373 -0.114691  0.193501
			-0.832987 -0.097030  0.544718
			-0.916513 -0.116531  0.382654
			-0.772474 -0.094174  0.628025
			 0.744169 -0.044281  0.666522
			 0.599548  0.013026  0.800233
			 0.386902  0.014212  0.922011
			 0.257428 -0.008624  0.966259
			 0.018977 -0.036968  0.999136
			 0.981159 -0.110284 -0.158635
			 0.994425 -0.068746 -0.079952
			 0.840718 -0.009493  0.541390
			 0.989847  0.043072  0.135451
			 0.765967 -0.004572  0.642864
			 0.685364 -0.077353 -0.724081
			 0.905157 -0.103082 -0.412388
			 0.935573 -0.160859 -0.314367
			 0.644963  0.010871 -0.764136
			 0.595890  0.012486 -0.802969
			-0.792508 -0.119684  0.598002
			-0.721781 -0.106973  0.683805
			-0.624621 -0.106804  0.773590
			-0.523620 -0.062701  0.849642
			 0.364133 -0.116668  0.924011
			 0.754471 -0.086943  0.650549
			-0.341665 -0.023874  0.939519
			-0.073373 -0.026611  0.996950
			 0.117533  0.003686  0.993062
			 0.484615  0.004996 -0.874714
			-0.034253  0.177026 -0.983610
			-0.488119  0.156437 -0.858642
			 0.041804  0.082181 -0.995740
			-0.844835  0.083969 -0.528397
			 0.222823  0.057511 -0.973161
			 0.568076  0.060854 -0.820723
			 0.413505  0.042573 -0.909506
			 0.490548  0.097097 -0.865988
			 0.446117  0.155491 -0.881364
			 0.215534  0.140294 -0.966366
			 0.324270  0.072694 -0.943167
			 0.441775  0.037410 -0.896346
			 0.421443  0.030348 -0.906347
			 0.608045  0.148506 -0.779889
			 0.599906  0.267942 -0.753870
			 0.358036  0.142839 -0.922717
			 0.469714  0.219661 -0.855054
			 0.555790  0.116088 -0.823178
			 0.570539  0.093451 -0.815936
			 0.048363  0.175233 -0.983338
			 0.004769  0.207387 -0.978247
			-0.993713 -0.000545 -0.111958
			-0.987811 -0.044923  0.149031
			-0.954514  0.008386  0.298049
			-0.890131 -0.064357  0.451137
			-0.871733 -0.141002  0.469255
			-0.789039 -0.083666  0.608619
			 0.756934 -0.073158  0.649384
			 0.657121 -0.006738  0.753755
			 0.732955  0.007075  0.680241
			 0.497837  0.016968  0.867105
			 0.262910 -0.017353  0.964664
			 0.893886 -0.011022 -0.448159
			 0.881710  0.044740  0.469665
			 0.729647  0.029814  0.683174
			 0.949114  0.133646  0.285168
			 0.967965  0.159148 -0.194207
			 0.841248  0.065277 -0.536694
			 0.818022  0.091216  0.567908
			 0.605443  0.059975 -0.793626
			-0.778643 -0.112678  0.617267
			-0.677600 -0.117372  0.726004
			-0.546896 -0.100373  0.831162
			-0.534409 -0.066410  0.842613
			-0.302918 -0.035378  0.952360
			-0.362194 -0.049721  0.930776
			 0.137099 -0.001654  0.990556
			-0.095804 -0.010273  0.995347
			-0.440978  0.257848 -0.859682
			 0.051586  0.241650 -0.968991
			-0.872436  0.116485 -0.474643
			 0.600331  0.102905 -0.793103
			 0.728813  0.120437 -0.674037
			 0.493119  0.247581 -0.833989
			 0.418288  0.152895 -0.895353
			 0.321879  0.340558 -0.883410
			 0.409657  0.362022 -0.837330
			 0.169276  0.275881 -0.946169
			 0.274771  0.236500 -0.931971
			 0.787402  0.271768 -0.553300
			 0.791586  0.182085 -0.583298
			 0.638258  0.140556 -0.756883
			 0.677024  0.182289 -0.713028
			 0.657736  0.352373 -0.665745
			 0.308969  0.234327 -0.921753
			 0.442842  0.266548 -0.856062
			 0.384200  0.274220 -0.881586
			-0.990021 -0.002533 -0.140897
			-0.988266  0.127036  0.084809
			-0.958624 -0.038464  0.282064
			-0.988488 -0.081117  0.127717
			-0.920791 -0.077964  0.382185
			 0.624541 -0.010278  0.780924
			 0.475143 -0.042038  0.878904
			 0.279301 -0.061070  0.958260
			 0.593720  0.031091  0.804071
			 0.601215  0.014251  0.798960
			 0.964965  0.180565  0.190366
			 0.891446  0.091875  0.443715
			 0.868854  0.223934 -0.441527
			 0.735418  0.046273  0.676032
			 0.622787  0.038698  0.781434
			-0.658099 -0.089768  0.747561
			-0.850480 -0.078593  0.520103
			-0.586482 -0.142993  0.797240
			-0.501362 -0.130285  0.855372
			-0.424069 -0.072890  0.902692
			-0.427815 -0.102815  0.898000
			-0.441686 -0.117984  0.889378
			-0.368337 -0.098296  0.924481
			-0.262557 -0.057284  0.963214
			 0.114867 -0.001135  0.993380
			 0.077747 -0.038281  0.996238
			-0.077161  0.312848 -0.946664
			-0.598513  0.234235 -0.766105
			-0.921260  0.132528 -0.365671
			 0.382776  0.329107 -0.863233
			 0.496412  0.334386 -0.801100
			 0.372449  0.446391 -0.813644
			 0.178576  0.413668 -0.892743
			 0.258586  0.351866 -0.899624
			 0.966787  0.240538 -0.086397
			 0.943270  0.315726 -0.102754
			 0.869997  0.347717 -0.349568
			 0.840660  0.364925 -0.400151
			 0.563711  0.341709 -0.751974
			 0.401294  0.404350 -0.821867
			-0.874740  0.189333 -0.446076
			-0.981936  0.177309 -0.066046
			-0.951040  0.240585  0.194013
			-0.869590  0.179314  0.460065
			-0.912023  0.042162  0.407967
			-0.869057 -0.031536  0.493706
			 0.434031 -0.001520  0.900897
			 0.504642 -0.000637  0.863328
			 0.900198  0.207936  0.382630
			 0.812346  0.101403  0.574291
			 0.546234 -0.004522  0.837620
			 0.564417  0.020049  0.825246
			 0.674168  0.065602  0.735659
			-0.469650 -0.038163  0.882028
			-0.431076 -0.149912  0.889775
			-0.744514  0.021327  0.667266
			-0.611239  0.010433  0.791378
			-0.436084 -0.159894  0.885587
			-0.392609 -0.148640  0.907615
			-0.348104 -0.121463  0.929554
			-0.181902 -0.064056  0.981228
			-0.274024 -0.090521  0.957453
			-0.264734 -0.073620  0.961507
			 0.098711 -0.043601  0.994161
			-0.249215  0.195095 -0.948594
			-0.334597  0.301642 -0.892780
			-0.536887  0.259148 -0.802867
			 0.301329  0.301177 -0.904706
			 0.441798  0.307109 -0.842911
			 0.278449  0.226819 -0.933284
			 0.543250  0.272448 -0.794135
			 0.488423  0.201985 -0.848908
			 0.622274  0.046864 -0.781395
			 0.089811  0.255760 -0.962559
			 0.359366  0.359051 -0.861359
			 0.217862  0.198444 -0.955592
			 0.321994  0.128878 -0.937929
			 0.861514  0.204269  0.464831
			 0.868573  0.166760  0.466660
			 0.943348  0.205930  0.260168
			 0.969305  0.238381  0.060187
			 0.921450  0.211540  0.325852
			 0.635826  0.459869 -0.619875