<?xml version="1.0"?>
<VTKFile type="PolyData" version="0.1" byte_order="LittleEndian" compressor="vtkZLibDataCompressor">
	<PolyData>
		<Piece NumberOfPoints="2662" NumberOfVerts="0" NumberOfLines="0" NumberOfStrips="0" NumberOfPolys="5320">
		<PointData Normals="Normals">
		<DataArray type="Float32" Name="Normals" NumberOfComponents="3" format="ascii">
			 0.802336 -0.270927  0.531841
			 0.766840 -0.046407  0.640159
			 0.669597 -0.318244  0.671089
			 0.636347 -0.562011  0.528400
			 0.841429 -0.093855  0.532155
			 0.856654 -0.370639  0.358846
			 0.759209 -0.497236  0.419949
			 0.616595 -0.223794  0.754802
			 0.678735 -0.131101  0.722587
			 0.787593  0.112700  0.605802
			 0.816705  0.090471  0.569919
			 0.399221 -0.648157  0.648471
			 0.532357 -0.414932  0.737853
			 0.579874 -0.767322  0.273793
			 0.442354 -0.746582  0.496929
			 0.876415 -0.206172  0.435189
			 0.806370  0.049654  0.589324
			 0.766660 -0.563351  0.308005
			 0.741198 -0.662991  0.105206
			 0.878449 -0.448766  0.164125
			 0.508127 -0.348988  0.787410
			 0.683750 -0.037513  0.728752
			 0.521692 -0.307319  0.795859
			 0.607014 -0.129670  0.784041
			 0.478095 -0.288828  0.829460
			 0.630025  0.074926  0.772952
			 0.791599  0.106896  0.601619
			 0.676469  0.152100  0.720594
			 0.808651  0.146119  0.569854
			 0.261207 -0.875472  0.406596
			 0.131264 -0.813650  0.566342
			 0.369711 -0.602295  0.707499
			 0.202240 -0.977756  0.055615
			 0.456888 -0.889410 -0.014245
			 0.835930 -0.438592  0.329937
			 0.822225 -0.112500  0.557933
			 0.742103  0.076788  0.665872
			 0.494448 -0.856122 -0.150256
			 0.726804 -0.686783 -0.009205
			 0.296799 -0.539143  0.788185
			 0.427555 -0.123946  0.895452
			 0.333511 -0.339654  0.879435
			 0.198112 -0.503868  0.840755
			 0.482038 -0.011183  0.876079
			 0.656051  0.073576  0.751122
			 0.780475  0.110375  0.615367
			 0.666994 -0.010915  0.744983
			 0.739782 -0.080990  0.667955
			 0.796612 -0.056412  0.601853
			 0.037571 -0.960875  0.274422
			 0.013956 -0.708670  0.705402
			-0.124525 -0.906507  0.403409
			-0.011618 -0.995938  0.089291
			-0.068926 -0.995045 -0.071654
			 0.079725 -0.985458 -0.150055
			 0.196324 -0.942773 -0.269512
			 0.766939 -0.625847  0.141845
			 0.803439 -0.523045  0.284447
			 0.786888 -0.222812  0.575467
			 0.795100 -0.388445  0.465754
			 0.716830  0.010188  0.697174
			 0.273319 -0.913103 -0.302557
			 0.438670 -0.852919 -0.283016
			 0.659968 -0.726010 -0.193267
			 0.193931 -0.377637  0.905418
			 0.283749 -0.150464  0.947020
			 0.460361 -0.093942  0.882747
			 0.743956 -0.002708  0.668223
			 0.696281  0.091107  0.711963
			 0.426358 -0.084042  0.900642
			 0.564387 -0.062977  0.823105
			 0.760204 -0.125020  0.637542
			 0.759992 -0.116659  0.639377
			 0.651637 -0.079941  0.754306
			 0.753962 -0.113632  0.647015
			-0.131976 -0.980507  0.145560
			-0.159798 -0.836235  0.524572
			-0.169535 -0.739682  0.651251
			 0.047993 -0.587075  0.808109
			-0.254595 -0.882055  0.396435
			-0.255668 -0.942887  0.213535
			-0.019660 -0.932632 -0.360292
			-0.100697 -0.983806 -0.148274
			-0.157435 -0.986348  0.048285
			 0.000561 -0.929698 -0.368323
			 0.004042 -0.914196 -0.405252
			 0.118741 -0.829104 -0.546340
			 0.812487 -0.579642 -0.062288
			 0.866291 -0.447077  0.222849
			 0.814310 -0.366525  0.450066
			 0.756306 -0.113078  0.644371
			 0.679825  0.038633  0.732356
			 0.424080 -0.756123 -0.498432
			 0.628642 -0.655844 -0.417944
			 0.159197 -0.397389  0.903736
			 0.343549 -0.197145  0.918209
			 0.296578 -0.140307  0.944646
			 0.612619  0.005777  0.790358
			 0.735105 -0.108833  0.669161
			 0.694777  0.038013  0.718220
			 0.713025  0.075632  0.697048
			 0.207578 -0.039528  0.977420
			 0.335319  0.015179  0.941982
			 0.726384 -0.050817  0.685408
			 0.559614  0.032172  0.828129
			 0.789571 -0.141126  0.597210
			 0.781294 -0.012757  0.624033
			 0.744186  0.038816  0.666843
			-0.278821 -0.837625  0.469726
			-0.102696 -0.656667  0.747156
			-0.314440 -0.756192  0.573848
			-0.301910 -0.840672  0.449578
			-0.230412 -0.934407  0.271651
			-0.014622 -0.972415 -0.232798
			-0.046699 -0.850414 -0.524038
			-0.031884 -0.788506 -0.614200
			-0.037178 -0.913073 -0.406098
			 0.115433 -0.986964  0.112150
			-0.035741 -0.881867 -0.470141
			-0.009683 -0.767383 -0.641116
			-0.039484 -0.930823 -0.363332
			 0.213202 -0.695482 -0.686185
			-0.020217 -0.646540 -0.762613
			 0.056806 -0.547943 -0.834584
			 0.833539 -0.517845 -0.192484
			 0.935280 -0.343954  0.083344
			 0.906297 -0.228105  0.355801
			 0.828827 -0.179530  0.529920
			 0.760478 -0.006782  0.649328
			 0.386477 -0.627289 -0.676125
			 0.557165 -0.511339 -0.654293
			 0.759927 -0.525363 -0.382759
			 0.672943 -0.509011 -0.536708
			 0.168775 -0.363295  0.916260
			-0.014934 -0.522131  0.852735
			 0.243027 -0.208595  0.947326
			 0.135460 -0.094328  0.986282
			 0.643534  0.015126  0.765268
			 0.746682  0.004565  0.665165
			 0.788797 -0.089138  0.608155
			 0.768287 -0.173908  0.616028
			 0.800585 -0.155660  0.578648
			 0.635264  0.036558  0.771429
			-0.053819 -0.027721  0.998166
			-0.071240 -0.005638  0.997443
			 0.570100  0.103176  0.815071
			 0.161635  0.069660  0.984389
			 0.342955  0.117766  0.931941
			 0.680507  0.066534  0.729714
			 0.573680  0.154270  0.804421
			 0.829753 -0.018332  0.557830
			 0.836445  0.173846  0.519748
			 0.807376  0.203943  0.553670
			 0.730920  0.141363  0.667662
			-0.183982 -0.570315  0.800557
			-0.363720 -0.787598  0.497391
			-0.372178 -0.715471  0.591257
			-0.170154 -0.892752  0.417183
			-0.295942 -0.723175  0.624049
			-0.310388 -0.701236  0.641816
			-0.006695 -0.919722  0.392514
			 0.320018 -0.903255 -0.285864
			 0.018862 -0.940837 -0.338335
			 0.055527 -0.805334  0.590215
			 0.231949 -0.928360  0.290426
			 0.370074 -0.927057  0.060090
			 0.409363 -0.891678 -0.193215
			 0.069135 -0.910478 -0.407737
			-0.010101 -0.794128 -0.607667
			 0.131260 -0.690707 -0.711122
			 0.090760 -0.599670 -0.795084
			 0.194168 -0.621119 -0.759282
			 0.203596 -0.395199 -0.895749
			 0.023708 -0.357818 -0.933490
			 0.014834 -0.370066 -0.928887
			 0.276878 -0.550879 -0.787319
			 0.263160 -0.418356 -0.869324
			 0.034691 -0.366637 -0.929717
			 0.135194 -0.383922 -0.913415
			 0.810034 -0.381659 -0.445176
			 0.938540 -0.314747 -0.141697
			 0.980983 -0.151666  0.121116
			 0.909738 -0.098922  0.403225
			 0.743808  0.057376  0.665926
			 0.423600 -0.479602 -0.768469
			 0.624809 -0.381715 -0.681107
			 0.022228 -0.313283  0.949400
			 0.110969 -0.145647  0.983094
			-0.016634 -0.066419  0.997653
			 0.675860  0.058710  0.734688
			 0.884889 -0.000496  0.465801
			 0.821092  0.065679  0.567004
			 0.925742  0.034795  0.376551
			 0.898324  0.089100  0.430203
			-0.307473 -0.035913  0.950879
			-0.420600 -0.083501  0.903395
			-0.387915 -0.026143  0.921324
			-0.385986 -0.087638  0.918332
			-0.184730 -0.078570  0.979644
			 0.116513  0.018787  0.993012
			-0.082184 -0.081009  0.993319
			 0.619868  0.169968  0.766077
			 0.662152  0.132111  0.737632
			 0.434800  0.079336  0.897026
			 0.251062 -0.007967  0.967938
			 0.396038  0.181174  0.900183
			 0.507987  0.176236  0.843143
			 0.697625  0.184758  0.692231
			 0.896795  0.256495  0.360512
			 0.872681  0.394187  0.288174
			 0.784327  0.181984  0.593054
			 0.837911  0.192442  0.510756
			 0.854919  0.342748  0.389406
			 0.893014  0.298833  0.336489
			-0.476671 -0.544122  0.690446
			-0.232916 -0.465464  0.853870
			-0.486137 -0.641097  0.593856
			-0.368095 -0.632831  0.681199
			-0.188521 -0.797733  0.572785
			 0.352132 -0.868797 -0.348131
			 0.817962 -0.539493 -0.199714
			 0.956441 -0.270004 -0.110985
			 0.121048 -0.849547  0.513437
			 0.005394 -0.685317  0.728225
			 0.000922 -0.760367  0.649493
			-0.072688 -0.645220  0.760531
			 0.023148 -0.626968  0.778701
			 0.224752 -0.966423  0.124549
			 0.382959 -0.922592  0.046550
			 0.249735 -0.923767  0.290322
			 0.083944 -0.875828  0.475268
			 0.507519 -0.844774 -0.169650
			 0.467020 -0.821663 -0.326745
			 0.368560 -0.888942 -0.271929
			 0.216402 -0.800232 -0.559284
			 0.854686 -0.500247 -0.138798
			 0.439836 -0.857706 -0.266243
			 0.391491 -0.627798 -0.672759
			 0.240317 -0.517451 -0.821275
			 0.525501 -0.423661 -0.737807
			 0.511795 -0.220169 -0.830416
			 0.022817 -0.254079 -0.966914
			 0.368864 -0.214710 -0.904345
			 0.167299 -0.199141 -0.965585
			-0.013648 -0.287804 -0.957592
			 0.036301 -0.240264 -0.970029
			 0.407014 -0.401458 -0.820470
			 0.354910 -0.330309 -0.874606
			 0.292910 -0.296321 -0.909064
			 0.209789 -0.247628 -0.945869
			 0.861023 -0.176932 -0.476797
			 0.932099 -0.240100 -0.271190
			 0.994526 -0.104394  0.004385
			 0.898776  0.015498  0.438135
			 0.461855 -0.323159 -0.825990
			 0.688205 -0.222015 -0.690712
			-0.133212 -0.124004  0.983299
			-0.180239 -0.300691  0.936536
			 0.954486  0.187243  0.232156
			 0.938236  0.018846  0.345483
			 0.868737  0.089441  0.487131
			 0.929590  0.086298  0.358351
			 0.971470  0.188269  0.144224
			 0.937288  0.308065  0.163053
			-0.390054 -0.109067  0.914310
			-0.494196 -0.140203  0.857971
			-0.446620 -0.110828  0.887833
			-0.454008 -0.081303  0.887280
			-0.445985 -0.129471  0.885627
			-0.386634 -0.117040  0.914776
			-0.485635 -0.097038  0.868759
			-0.323564 -0.096151  0.941308
			-0.415104 -0.081501  0.906116
			-0.230767 -0.104168  0.967417
			 0.089303 -0.087454  0.992158
			 0.027117 -0.107572  0.993827
			-0.148167 -0.119290  0.981741
			-0.269378 -0.140647  0.952709
			 0.618365  0.171610  0.766926
			 0.437085  0.007035  0.899393
			 0.546243  0.059541  0.835508
			 0.153219 -0.075593  0.985297
			 0.678741  0.100289  0.727497
			 0.751153  0.174503  0.636646
			 0.872726  0.469678  0.133239
			 0.856197  0.485022  0.177991
			 0.914549  0.392898  0.096080
			 0.876226  0.471793 -0.098180
			 0.789063  0.602185 -0.121462
			 0.918347  0.240258  0.314508
			 0.931527  0.176035  0.318227
			 0.836097  0.099643  0.539456
			 0.840215  0.092411  0.534321
			 0.961698  0.261622  0.081793
			-0.557349 -0.523563  0.644394
			-0.513030 -0.519999  0.682935
			-0.532011 -0.387354  0.752941
			-0.393925 -0.428812  0.812984
			-0.052343 -0.520443  0.852291
			-0.272944 -0.540466  0.795863
			-0.232624 -0.589926  0.773222
			-0.164924 -0.843329  0.511465
			-0.243857 -0.699846  0.671378
			-0.093410 -0.502774  0.859356
			 0.415418 -0.899272 -0.136884
			 0.175388 -0.979393  0.100146
			 0.833810 -0.519147  0.187744
			-0.011319 -0.970668  0.240156
			 0.001777 -0.910463  0.413587
			 0.833090 -0.518747  0.191998
			 0.402449 -0.678520 -0.614529
			 0.551699 -0.741068 -0.382682
			 0.534582 -0.625314 -0.568511
			 0.609504 -0.557550 -0.563599
			 0.621301 -0.173810 -0.764051
			 0.495349 -0.326495 -0.805003
			 0.535905 -0.475221 -0.697833
			 0.467027 -0.393505 -0.791858
			 0.525215 -0.599124 -0.604317
			 0.597966 -0.599610 -0.531887
			 0.451595 -0.036097 -0.891493
			 0.033097 -0.118720 -0.992376
			 0.208333  0.058169 -0.976327
			 0.239623 -0.052662 -0.969437
			 0.440760 -0.233313 -0.866773
			 0.316208 -0.138601 -0.938511
			 0.373469 -0.131939 -0.918212
			 0.753833 -0.016539 -0.656858
			 0.966477 -0.091029 -0.240077
			 0.885675  0.063760 -0.459908
			 0.967425  0.049037 -0.248364
			 0.963688  0.054117  0.261491
			 0.997295  0.058530 -0.044464
			 0.604303 -0.045008 -0.795482
			-0.375449 -0.262668  0.888844
			-0.408979 -0.176710  0.895271
			 0.941708  0.336176 -0.013093
			 0.921928  0.378801 -0.080991
			 0.977694  0.129983  0.164980
			 0.939334  0.314551 -0.136785
			 0.821306  0.568847 -0.043229
			-0.493723 -0.205142  0.845076
			-0.425813 -0.325147  0.844371
			-0.314666 -0.083382  0.945533
			-0.408598 -0.116043  0.905308
			-0.457047 -0.150245  0.876661
			-0.446385 -0.137538  0.884208
			-0.370773 -0.144005  0.917491
			-0.346658 -0.143863  0.926894
			-0.347697 -0.140548  0.927013
			-0.264995 -0.135981  0.954614
			 0.010847 -0.086935  0.996155
			-0.372035 -0.135428  0.918286
			 0.595410 -0.001712  0.803420
			 0.330054 -0.013824  0.943861
			 0.478517  0.001594  0.878077
			 0.792023  0.019706  0.610174
			 0.793003  0.600321 -0.103734
			 0.772589  0.611455 -0.170966
			 0.935601  0.330645 -0.123793
			 0.781870  0.502111 -0.369545
			 0.888288  0.341238 -0.307412
			 0.579244  0.638957 -0.506172
			 0.647661  0.697602 -0.306411
			 0.980588  0.192713  0.036185
			 0.963605  0.169116  0.207040
			 0.903799  0.081779  0.420070
			 0.982486  0.182286  0.038634
			 0.876643  0.054730  0.478018
			 0.842850  0.034553  0.537038
			 0.885625  0.030402  0.463405
			 0.959212  0.205823 -0.193777
			-0.417363 -0.513512  0.749742
			 0.063653 -0.402162  0.913353
			 0.038805 -0.435556  0.899325
			-0.123899 -0.473952  0.871791
			-0.362648 -0.410340  0.836724
			-0.569152 -0.395110  0.721078
			-0.529864 -0.500486  0.684659
			-0.446014 -0.577659  0.683653
			-0.438807 -0.763079  0.474510
			-0.428380 -0.834348  0.346922
			-0.236740 -0.927183  0.290321
			 0.098404 -0.915647  0.389752
			-0.479522 -0.626451  0.614506
			-0.259571 -0.359445  0.896338
			-0.079390 -0.345866  0.934919
			 0.105136 -0.994457 -0.000890
			 0.321294 -0.913696 -0.248858
			 0.519684 -0.799608 -0.300923
			 0.091666 -0.941119  0.325410
			 0.827550 -0.516514  0.219939
			-0.236759 -0.971551  0.005843
			 0.582269 -0.696946 -0.418604
			 0.513955 -0.237043 -0.824415
			 0.492038 -0.065564 -0.868101
			 0.608180 -0.003668 -0.793790
			 0.263876 -0.295229 -0.918265
			 0.325445 -0.258752 -0.909469
			 0.386472 -0.493782 -0.778986
			 0.392430 -0.606528 -0.691465
			 0.286014 -0.343905 -0.894385
			 0.467990 -0.774987 -0.424712
			 0.443767 -0.729766 -0.520108
			 0.297486 -0.762199 -0.574939
			 0.590036  0.120396 -0.798350
			 0.443363  0.082415 -0.892545
			 0.015046  0.149560 -0.988638
			 0.039079  0.092348 -0.994960
			 0.085394  0.287271 -0.954035
			 0.453917  0.219657 -0.863545
			 0.345850  0.197930 -0.917176
			 0.463931  0.106016 -0.879505
			 0.277156  0.159113 -0.947559
			 0.466181 -0.023932 -0.884366
			 0.767398  0.077682 -0.636447
			 0.670708  0.107139 -0.733943
			 0.823695  0.145296 -0.548102
			 0.926065  0.181802 -0.330683
			 0.972076  0.184636 -0.144840
			 0.859532  0.416179 -0.296647
			 0.780739  0.576189 -0.241771
			 0.902774  0.324780 -0.281988
			 0.815243  0.409957 -0.409041
			 0.708024  0.541472 -0.453333
			 0.571855  0.710977 -0.409260
			-0.219809 -0.433248  0.874060
			-0.210197 -0.237415  0.948394
			-0.298203 -0.062426  0.952459
			-0.350268 -0.039015  0.935837
			-0.333976 -0.043134  0.941594
			-0.518978 -0.062824  0.852476
			-0.450572 -0.152568  0.879606
			-0.493603 -0.093428  0.864654
			-0.644346 -0.080275  0.760509
			-0.551785 -0.144336  0.821401
			-0.235130 -0.102591  0.966534
			 0.390480 -0.062178  0.918509
			 0.341590 -0.062790  0.937749
			-0.226021 -0.103369  0.968623
			 0.127948 -0.004403  0.991771
			-0.128426 -0.074364  0.988927
			-0.149928 -0.080521  0.985413
			-0.488792 -0.111114  0.865295
			 0.518313 -0.031434  0.854613
			 0.723585 -0.026432  0.689728
			 0.879102 -0.006926  0.476583
			 0.629035  0.681192 -0.374557
			 0.566302  0.740805 -0.361261
			 0.783759  0.306634 -0.540090
			 0.609618  0.425281 -0.668956
			 0.866754  0.207509 -0.453518
			 0.511159  0.690833 -0.511338
			 0.425868  0.654958 -0.624233
			 0.459333  0.540441 -0.704937
			 0.419690  0.726223 -0.544482
			 0.947373  0.182920 -0.262726
			 0.987812  0.082506  0.131983
			 0.974208  0.223367  0.032039
			 0.989962  0.136375 -0.037105
			 0.991194  0.067354 -0.114006
			 0.995577  0.087438 -0.034354
			 0.083676 -0.416111  0.905456
			-0.029006 -0.354097  0.934759
			-0.622543 -0.254624  0.740005
			-0.461034 -0.286767  0.839769
			-0.753730 -0.312675  0.578036
			-0.695629 -0.409938  0.589959
			-0.658186 -0.481041  0.579129
			-0.645220 -0.693503  0.320539
			-0.644555 -0.586172  0.490868
			-0.658870 -0.648280  0.381606
			-0.676650 -0.690496  0.255656
			-0.443362 -0.876212  0.188898
			-0.100407 -0.915355  0.389929
			-0.423706 -0.903089  0.070022
			-0.326626 -0.226794  0.917540
			-0.456350 -0.203653  0.866181
			-0.264423 -0.144434  0.953530
			-0.144538 -0.190089  0.971069
			 0.025307 -0.970460 -0.239930
			 0.067209 -0.944150 -0.322590
			 0.228862 -0.885673 -0.403987
			-0.220090 -0.948212 -0.229031
			-0.442633 -0.892838 -0.083163
			-0.472409 -0.880973 -0.026769
			 0.363144 -0.231385 -0.902545
			 0.215547 -0.093039 -0.972051
			 0.294855  0.063844 -0.953407
			 0.412037  0.131186 -0.901674
			 0.555665  0.124212 -0.822076
			 0.261293 -0.687339 -0.677710
			 0.235264 -0.557105 -0.796420
			 0.256539 -0.457182 -0.851570
			 0.210756 -0.385599 -0.898274
			 0.237802 -0.271082 -0.932719
			 0.288317 -0.256554 -0.922526
			-0.013281 -0.878209 -0.478092
			 0.553849  0.320527 -0.768449
			-0.006380  0.144897 -0.989426
			 0.053683  0.265244 -0.962686
			 0.145086  0.212954 -0.966230
			-0.042201  0.165589 -0.985291
			-0.025233  0.250810 -0.967708
			 0.285038  0.370046 -0.884205
			-0.093275  0.659220 -0.746143
			-0.077616  0.402409 -0.912164
			 0.124036  0.449900 -0.884424
			 0.464048  0.372210 -0.803815
			 0.496938  0.190077 -0.846713
			 0.375462  0.420402 -0.826009
			 0.246217  0.389147 -0.887661
			 0.527046  0.348176 -0.775239
			 0.700621  0.245695 -0.669899
			 0.812081  0.270561 -0.517032
			 0.902575  0.283331 -0.324164
			 0.659980  0.589935 -0.465190
			 0.667802  0.415905 -0.617303
			 0.657040  0.565199 -0.498847
			 0.511724  0.649187 -0.562756
			 0.427859  0.705211 -0.565344
			-0.413997 -0.082602  0.906523
			-0.405674 -0.042343  0.913037
			-0.404455 -0.037512  0.913788
			-0.629761 -0.053397  0.774951
			-0.776580  0.013825  0.629867
			-0.650757  0.008987  0.759232
			-0.504820 -0.104079  0.856927
			-0.750043 -0.009329  0.661324
			-0.812544 -0.034948  0.581851
			-0.707293 -0.111636  0.698050
			-0.607641 -0.112754  0.786167
			-0.677766 -0.121080  0.725240
			-0.281091 -0.093304  0.955135
			-0.332070 -0.091164  0.938839
			 0.523119 -0.039822  0.851329
			 0.386050 -0.000674  0.922477
			 0.284552  0.094436  0.953998
			-0.264224 -0.081064  0.961049
			-0.164037 -0.056591  0.984830
			 0.133825 -0.028715  0.990589
			-0.478858 -0.111401  0.870796
			-0.673146 -0.101812  0.732467
			 0.596239 -0.025626  0.802398
			 0.727192  0.011332  0.686341
			 0.707916 -0.021922  0.705956
			 0.973415 -0.007150  0.228938
			 0.729881 -0.058878  0.681033
			 0.863803 -0.100298  0.493745
			 0.640394  0.221533 -0.735404
			 0.713069  0.162347 -0.682038
			 0.437979  0.335565 -0.834009
			 0.467131  0.175439 -0.866608
			 0.460794  0.444620 -0.768103
			 0.867170  0.144748 -0.476512
			 0.930441  0.142393 -0.337643
			 0.336165  0.645640 -0.685669
			 0.279093  0.491700 -0.824826
			 0.973817  0.155132 -0.166177
			 0.988646  0.099683 -0.112441
			 0.978769  0.091036 -0.183642
			 0.922629  0.185260 -0.338281
			-0.837678 -0.228556  0.496042
			-0.827360 -0.189348  0.528794
			-0.562722 -0.135539  0.815458
			-0.740207 -0.145894  0.656360
			-0.837439 -0.400837  0.371518
			-0.905263 -0.263268  0.333451
			-0.810686 -0.525641  0.257855
			-0.846716 -0.505995  0.164441
			-0.845726 -0.519489  0.121978
			-0.677093 -0.722698  0.138756
			-0.679354 -0.733449  0.023030
			-0.424381 -0.900653 -0.093411
			-0.502083 -0.843162 -0.192330
			-0.354570 -0.865948 -0.352723
			-0.680847 -0.732007 -0.024770
			-0.661050 -0.746849 -0.072321
			-0.115340 -0.059159 -0.991563
			 0.063988  0.119753 -0.990740
			 0.054481 -0.210949 -0.975978
			 0.282249  0.270172 -0.920512
			 0.214639  0.153165 -0.964609
			 0.449836  0.261359 -0.854014
			 0.011079 -0.871837 -0.489671
			 0.057485 -0.815798 -0.575472
			 0.105237 -0.692936 -0.713278
			 0.043525 -0.521367 -0.852222
			 0.070744 -0.348657 -0.934577
			-0.288811 -0.889776 -0.353393
			 0.414828  0.509217 -0.754066
			 0.391959  0.445637 -0.804845
			 0.057221  0.351494 -0.934440
			 0.275056  0.566656 -0.776689
			-0.034908  0.573743 -0.818291
			-0.046299  0.722222 -0.690110
			 0.063266  0.675614 -0.734536
			 0.001001  0.709146 -0.705061
			 0.336666  0.508200 -0.792709
			 0.396701  0.485992 -0.778742
			 0.114883  0.491746 -0.863127
			 0.181818  0.670430 -0.719351
			 0.505689  0.424462 -0.751073
			 0.448035  0.628066 -0.636237
			 0.264166  0.708764 -0.654118
			-0.805904 -0.032670  0.591145
			-0.799386 -0.093625  0.593478
			-0.817981 -0.041106  0.573774
			-0.861255  0.002333  0.508168
			-0.893893 -0.037562  0.446703
			-0.871854 -0.023200  0.489217
			-0.818650 -0.099137  0.565672
			-0.787761 -0.084718  0.610127
			-0.365928 -0.073066  0.927770
			-0.454047 -0.077952  0.887561
			-0.527136 -0.138972  0.838340
			-0.522583 -0.096379  0.847123
			 0.605078 -0.024191  0.795799
			 0.486375  0.012623  0.873659
			 0.514003  0.010346  0.857726
			 0.444787  0.019177  0.895431
			 0.339330  0.003969  0.940659
			-0.253117 -0.034384  0.966824
			-0.059700 -0.039681  0.997427
			-0.357546 -0.035929  0.933204
			 0.005215 -0.019630  0.999794
			-0.007009 -0.004752  0.999964
			 0.300924  0.021546  0.953405
			 0.126103 -0.005370  0.992003
			-0.790644 -0.118737  0.600653
			-0.850835 -0.070367  0.520699
			-0.654061 -0.075742  0.752640
			-0.758345 -0.090218  0.645580
			 0.999023  0.036517 -0.024907
			 0.982780 -0.086883  0.163076
			 0.797167 -0.131603  0.589241
			 0.725800 -0.046397  0.686340
			 0.577671 -0.004875  0.816255
			 0.952389 -0.127984  0.276722
			 0.576618  0.139131 -0.805080
			 0.814169  0.162430 -0.557446
			 0.604723  0.120871 -0.787211
			 0.305540  0.201480 -0.930619
			 0.196145  0.285370 -0.938132
			 0.541929  0.159616 -0.825128
			 0.295246  0.149762 -0.943611
			 0.345695  0.049125 -0.937060
			 0.486829  0.068422 -0.870813
			 0.161143  0.695779 -0.699946
			 0.061076  0.643022 -0.763408
			 0.047775  0.501016 -0.864118
			 0.843239  0.140817 -0.518767
			 0.929857  0.080910 -0.358916
			 0.717904  0.186793 -0.670613
			-0.969460 -0.175744  0.171059
			-0.901061 -0.206474  0.381389
			-0.949022 -0.164949  0.268606
			-0.954581 -0.186330  0.232502
			-0.878453 -0.176382  0.444083
			-0.977681 -0.202220  0.056984
			-0.922581 -0.356604  0.147233
			-0.931681 -0.362542  0.023107
			-0.849961 -0.525846  0.032440
			-0.860186 -0.509376 -0.024804
			-0.801084 -0.595197 -0.063289
			-0.657700 -0.714276 -0.239249
			-0.637615 -0.697098 -0.327874
			-0.422767 -0.840732 -0.338287
			-0.850155 -0.526164 -0.019690
			-0.161928  0.113160 -0.980293
			-0.350317 -0.163808 -0.922196
			-0.269319 -0.031625 -0.962531
			-0.109625 -0.220028 -0.969314
			 0.005509  0.279219 -0.960212
			 0.152861  0.271140 -0.950325
			 0.241724  0.351957 -0.904265
			 0.246434  0.514088 -0.821574
			-0.240328 -0.907922 -0.343396
			-0.149967 -0.856952 -0.493095
			-0.072707 -0.719501 -0.690675
			-0.265585 -0.650789 -0.711294
			-0.244638 -0.507056 -0.826466
			-0.219913 -0.332805 -0.916995
			 0.316684  0.650673 -0.690171
			 0.341954  0.614407 -0.711035
			 0.348129  0.588190 -0.729958
			 0.222782  0.554909 -0.801526
			 0.369374  0.600229 -0.709428
			 0.060937  0.585868 -0.808113
			-0.041806  0.511796 -0.858089
			 0.310398  0.769657 -0.557925
			 0.384390  0.676522 -0.628143
			 0.316413  0.628118 -0.710880
			 0.279786  0.840440 -0.464090
			-0.935904 -0.187799  0.298019
			-0.940656  0.001307  0.339360
			-0.980258  0.009722  0.197485
			-0.968905 -0.054286  0.241405
			-0.896048 -0.091040  0.434522
			-0.947452 -0.113345  0.299146
			-0.869358 -0.112835  0.481128
			-0.858617 -0.095619  0.503620
			-0.472687 -0.068194  0.878588
			-0.550065 -0.075080  0.831740
			 0.489606  0.029807  0.871434
			 0.343846  0.032085  0.938478
			-0.116765 -0.023105  0.992891
			-0.502559 -0.056502  0.862695
			-0.362880 -0.032091  0.931283
			-0.098872 -0.040533  0.994274
			 0.104305  0.011259  0.994482
			-0.873256 -0.081839  0.480340
			-0.829299 -0.089296  0.551625
			-0.913718 -0.077236  0.398940
			-0.953821 -0.067356  0.292727
			-0.665708 -0.058294  0.743932
			-0.787147 -0.058346  0.614000
			 0.976533 -0.013206 -0.214963
			 0.986462 -0.099976 -0.129991
			 0.887380 -0.064971  0.456438
			 0.922172  0.003339  0.386765
			 0.650709 -0.021585  0.759020
			 0.781360  0.009268  0.624012
			 0.591495  0.020407  0.806050
			 0.994124 -0.041958  0.099787
			 0.563122  0.075247 -0.822940
			 0.627746  0.159820 -0.761835
			 0.213507  0.097543 -0.972060
			-0.029320  0.336484 -0.941233
			 0.222896  0.228797 -0.947612
			 0.117868  0.099025 -0.988080
			 0.428204  0.029866 -0.903189
			 0.335820 -0.041608 -0.941007
			 0.298513 -0.022398 -0.954143
			 0.295205  0.003743 -0.955427
			 0.297204  0.041231 -0.953923
			 0.549009  0.109499 -0.828613
			 0.502938  0.063882 -0.861959
			 0.175152  0.387971 -0.904876
			 0.638122  0.126498 -0.759472
			 0.687531  0.111817 -0.717495
			 0.781575  0.141477 -0.607557
			 0.874436  0.074892 -0.479326
			 0.865393  0.079600 -0.494730
			-0.989301 -0.142039 -0.033294
			-0.982680 -0.169204  0.075572
			-0.987607 -0.142534 -0.065697
			-0.950488 -0.309872 -0.023505
			-0.868204 -0.490254 -0.076634
			-0.822145 -0.524059 -0.222349
			-0.621847 -0.649449 -0.437633
			-0.847595 -0.479500 -0.227292
			-0.354945 -0.793738 -0.493957
			-0.290457 -0.009481 -0.956841
			-0.113013  0.160813 -0.980493
			-0.525516 -0.273475 -0.805633
			-0.627607 -0.225595 -0.745128
			-0.561900 -0.156221 -0.812320
			 0.196773  0.496497 -0.845441
			 0.238922  0.483088 -0.842343
			-0.004798  0.349401 -0.936961
			 0.273173  0.534848 -0.799571
			 0.287352  0.693092 -0.661099
			-0.454565 -0.582473 -0.673866
			-0.455507 -0.409642 -0.790384
			-0.534786 -0.490034 -0.688383
			 0.269990  0.690889 -0.670655
			 0.382464  0.591683 -0.709670
			 0.302689  0.558732 -0.772138
			 0.387777  0.423150 -0.818885
			 0.131466  0.389116 -0.911759
			 0.282094  0.367412 -0.886246
			 0.403981  0.631593 -0.661732
			 0.428641  0.367610 -0.825306
			 0.416124  0.407432 -0.812921
			 0.070469  0.270156 -0.960234
			-0.017655  0.431524 -0.901929
			 0.680941  0.299748 -0.668184
			-0.923080 -0.299564  0.241215
			-0.873915 -0.460378  0.155967
			-0.945141 -0.302578  0.123108
			-0.968061 -0.231548  0.096145
			-0.994181  0.032580  0.102680
			-0.987883  0.048250  0.147511
			-0.998094  0.011881 -0.060556
			-0.993360 -0.080393  0.082298
			-0.976443 -0.072758  0.203137
			-0.998527 -0.042781  0.033374
			-0.957948 -0.234644  0.165159
			 0.463514  0.037699  0.885287
			 0.501574  0.029161  0.864623
			 0.468575  0.036026  0.882689
			 0.289255  0.023753  0.956957
			 0.102094  0.019155  0.994590
			-0.568471 -0.033539  0.822020
			-0.158770 -0.025126  0.986996
			-0.281874 -0.018020  0.959282
			-0.473666 -0.029270  0.880218
			-0.563150  0.004345  0.826343
			-0.097504 -0.004276  0.995226
			-0.948186 -0.081917  0.306973
			-0.892541 -0.072153  0.445156
			-0.893455 -0.055062  0.445765
			-0.995188 -0.097622  0.008424
			-0.992589 -0.120692  0.014175
			-0.975534 -0.060363  0.211402
			-0.690584 -0.042295  0.722015
			-0.820822 -0.038280  0.569900
			-0.888768 -0.058408  0.454621
			 0.890938 -0.015939 -0.453844
			 0.971744 -0.028384 -0.234324
			 0.999460 -0.006718  0.032170
			 0.970604 -0.001743  0.240677
			 0.746800  0.029165  0.664409
			 0.906332 -0.018252  0.422172
			 0.533759  0.021306  0.845368
			 0.816638  0.184654 -0.546813
			 0.694261  0.167097 -0.700058
			-0.024714  0.178808 -0.983574
			 0.170968  0.088549 -0.981289
			 0.021608  0.183123 -0.982853
			 0.395290 -0.003760 -0.918549
			 0.521551  0.050396 -0.851731
			 0.220673  0.007627 -0.975318
			 0.116979 -0.007282 -0.993108
			 0.119338 -0.026964 -0.992487
			 0.242228  0.010754 -0.970160
			 0.412034  0.026391 -0.910786
			 0.351452  0.021731 -0.935954
			 0.316141 -0.017285 -0.948555
			 0.351136  0.075678 -0.933261
			 0.300737  0.125147 -0.945460
			 0.222853  0.118800 -0.967586
			 0.075460  0.117654 -0.990183
			 0.589809  0.072069 -0.804321
			 0.618846  0.075286 -0.781896
			 0.756657  0.061208 -0.650941
			 0.680551  0.078527 -0.728481
			-0.958708 -0.282606  0.031832
			-0.981895 -0.189194  0.009402
			-0.965590 -0.260026  0.004773
			-0.928978 -0.349525 -0.121790
			-0.865274 -0.472489 -0.167497
			-0.718005 -0.521373 -0.461128
			-0.433380 -0.029109 -0.900741
			-0.120117  0.136856 -0.983281
			-0.706183 -0.421586 -0.568833
			-0.708890 -0.315680 -0.630731
			-0.806652 -0.209630 -0.552601
			-0.814490 -0.251613 -0.522778
			-0.777840 -0.148000 -0.610787
			 0.350611  0.638473 -0.685146
			 0.383524  0.589074 -0.711268
			 0.202329  0.535443 -0.819978
			 0.320598  0.692668 -0.646086
			-0.272132  0.415165 -0.868091
			-0.016532  0.517970 -0.855239
			-0.315701  0.218593 -0.923336
			 0.137268  0.550931 -0.823184
			 0.287198  0.739512 -0.608801
			-0.776289 -0.447873 -0.443604
			 0.245930  0.588668 -0.770058
			 0.499767  0.510968 -0.699388
			 0.459693  0.405771 -0.789957
			 0.256274  0.493219 -0.831300
			 0.274631  0.384671 -0.881253
			 0.457837  0.207145 -0.864567
			 0.378419  0.214775 -0.900373
			 0.214510  0.178567 -0.960260
			 0.467874  0.225642 -0.854506
			 0.435331  0.100668 -0.894625