<?xml version="1.0"?>
<VTKFile type="PolyData" version="0.1" byte_order="LittleEndian" compressor="vtkZLibDataCompressor">
	<PolyData>
		<Piece NumberOfPoints="1502" NumberOfVerts="0" NumberOfLines="0" NumberOfStrips="0" NumberOfPolys="3001">
		<PointData Normals="Normals">
		<DataArray type="Float32" Name="Normals" NumberOfComponents="3" format="ascii">
			 0.962324 -0.027684 -0.270493
			 0.968518 -0.013833 -0.248558
			 0.931774  0.006926  0.362974
			 0.980146 -0.060232 -0.188906
			 0.877954 -0.004706 -0.478721
			 0.867021 -0.037510 -0.496858
			 0.971780  0.008231 -0.235747
			 0.867616 -0.028917  0.496394
			 0.978083 -0.036974 -0.204908
			 0.386459  0.018078  0.922129
			-0.049490  0.030125  0.998320
			 0.762547  0.046074  0.645291
			-0.036469  0.064110  0.997276
			 0.993615  0.031424 -0.108359
			 0.894611 -0.079084 -0.439792
			 0.937287 -0.091345 -0.336377
			 0.928367  0.003171 -0.371651
			 0.768609 -0.008353 -0.639664
			 0.720949 -0.028549 -0.692400
			 0.724721 -0.041840 -0.687771
			 0.971701 -0.050709  0.230707
			 0.633585  0.024936  0.773271
			 0.967784 -0.043780 -0.247945
			 0.072421  0.059675  0.995587
			-0.325173  0.044233  0.944619
			-0.455733  0.024723  0.889773
			-0.429737  0.043887  0.901887
			 0.007170  0.027617  0.999593
			 0.670660  0.030641  0.741132
			 0.992556  0.047685 -0.112068
			-0.325965  0.029921  0.944908
			-0.373278  0.057524  0.925934
			 0.949614  0.040364 -0.310813
			 0.825025 -0.094525 -0.557135
			 0.923651 -0.069440 -0.376892
			 0.794270  0.042541 -0.606073
			 0.618404  0.052398 -0.784111
			 0.593104 -0.019711 -0.804884
			 0.579181 -0.022265 -0.814895
			 0.587562  0.006865 -0.809150
			 0.796524 -0.054238 -0.602169
			 0.995038 -0.038380  0.091800
			 0.522177  0.011446  0.852761
			 0.183243  0.059596  0.981259
			-0.376441  0.061817  0.924376
			-0.567331  0.024593  0.823122
			-0.619713  0.041447  0.783733
			-0.640363  0.097411  0.761870
			 0.072160  0.026881  0.997031
			-0.137019 -0.026153  0.990223
			 0.906503 -0.004142  0.422179
			 0.894945  0.058255 -0.442357
			-0.536865 -0.003976  0.843659
			 0.776791  0.068552 -0.626016
			 0.966410  0.022733 -0.256000
			 0.551993  0.111801 -0.826320
			 0.468413  0.021290 -0.883253
			 0.466342  0.145453 -0.872564
			 0.466831 -0.005845 -0.884327
			 0.422621  0.049308 -0.904964
			 0.314004  0.084311 -0.945671
			 0.668537  0.006829 -0.743647
			 0.479070  0.014190 -0.877662
			 0.574353  0.053856  0.816835
			-0.179699  0.040688  0.982880
			-0.122435  0.059396  0.990698
			-0.380690  0.079676  0.921264
			-0.773430  0.010617  0.633793
			-0.782756  0.031715  0.621520
			-0.778115  0.060413  0.625210
			-0.837327  0.143185  0.527618
			-0.786300  0.206375  0.582358
			-0.495640  0.118310  0.860432
			-0.868866  0.126805  0.478531
			-0.513416 -0.027834  0.857688
			 0.058823 -0.066875  0.996026
			 0.896753 -0.123274  0.425014
			 0.953411 -0.119071 -0.277180
			 0.909807 -0.008917 -0.414936
			 0.625814  0.056551 -0.777920
			 0.571958  0.007249 -0.820251
			-0.748311 -0.013581  0.663209
			 0.972521  0.124091 -0.196987
			 0.832902  0.043123 -0.551738
			 0.765408  0.069535 -0.639778
			 0.815484  0.157973  0.556804
			 0.374055  0.087055 -0.923312
			 0.291827  0.188535 -0.937705
			-0.117048  0.042943 -0.992197
			-0.116167  0.161364 -0.980034
			 0.123328  0.062210 -0.990414
			 0.225700  0.106384 -0.968371
			-0.034296  0.141049 -0.989408
			 0.381339  0.074902 -0.921396
			 0.547253  0.011434 -0.836889
			 0.499254  0.047891 -0.865131
			 0.433584  0.077128 -0.897806
			 0.507441  0.075863 -0.858341
			 0.691749 -0.009537 -0.722075
			-0.072428  0.121865  0.989901
			-0.321033  0.090467  0.942737
			-0.896079  0.009288  0.443798
			-0.888463  0.047089  0.456527
			-0.880416  0.083850  0.466731
			-0.933791  0.357360 -0.018141
			-0.968475  0.228277  0.099731
			-0.918536  0.168806  0.357485
			-0.641859  0.107740  0.759216
			-0.857693  0.265172  0.440507
			-0.843035  0.100418  0.528401
			-0.402866  0.102866  0.909460
			-0.284485  0.113205  0.951973
			-0.310200  0.107544  0.944569
			-0.935356  0.109842  0.336221
			-0.949139  0.180896  0.257705
			-0.511084 -0.056145  0.857695
			-0.730496 -0.029194  0.682292
			 0.178325 -0.074421  0.981153
			-0.412012 -0.061294  0.909114
			 0.609930 -0.233279  0.757342
			 0.939530 -0.186269 -0.287378
			 0.812658 -0.083964 -0.576661
			 0.842510 -0.146292 -0.518436
			 0.412601 -0.022998 -0.910621
			 0.204096 -0.005319 -0.978936
			 0.651686 -0.044610 -0.757176
			-0.403030  0.106337 -0.908988
			-0.901693 -0.005419  0.432343
			 0.899466  0.053530 -0.433699
			 0.980797  0.155100  0.118242
			 0.989120  0.128965 -0.070779
			 0.797018 -0.063746 -0.600582
			 0.970168  0.080212 -0.228780
			 0.724009  0.017900 -0.689558
			 0.587936  0.182150  0.788132
			-0.903921  0.150311 -0.400417
			-0.940965  0.073280 -0.330476
			-0.983884  0.093561 -0.152379
			-0.999133  0.038938 -0.014703
			-0.917779  0.189471 -0.348974
			 0.074063  0.204298 -0.976103
			-0.664776  0.294378 -0.686596
			 0.236685  0.163511 -0.957729
			 0.384239  0.004487 -0.923223
			 0.394752 -0.079427 -0.915348
			 0.110431 -0.120842 -0.986510
			 0.278218  0.065534 -0.958280
			 0.694837 -0.111959 -0.710399
			 0.581845 -0.119151 -0.804524
			 0.666776 -0.144100 -0.731194
			 0.092769  0.148175  0.984600
			-0.921461 -0.001033  0.388469
			-0.912640  0.031099  0.407579
			-0.914833  0.060969  0.399204
			-0.860389  0.504235 -0.074015
			-0.873036  0.359577 -0.329413
			-0.375579  0.419823 -0.826250
			-0.591091  0.012008  0.806516
			-0.802350  0.031032  0.596047
			-0.842059  0.068917  0.534964
			-0.902015  0.316760  0.293313
			-0.870323  0.241146  0.429404
			-0.913141  0.022171  0.407041
			-0.906565  0.068176  0.416525
			-0.422933 -0.037078  0.905402
			-0.134458  0.127189  0.982723
			-0.556612 -0.000962  0.830772
			 0.154459  0.162591  0.974529
			-0.569391  0.103168  0.815568
			-0.159179  0.167818  0.972882
			 0.216999  0.199357  0.955598
			-0.744819 -0.058560  0.664692
			-0.920901 -0.034586  0.388259
			-0.309727 -0.041540  0.949918
			 0.048569 -0.029279  0.998391
			-0.681103 -0.068565  0.728970
			 0.576053 -0.579928  0.576062
			-0.305783 -0.147214  0.940651
			-0.050448 -0.061651  0.996822
			 0.983241 -0.138796 -0.118204
			 0.750539  0.013706 -0.660683
			 0.763840 -0.074557 -0.641085
			 0.142888  0.011086 -0.989677
			 0.393640  0.017415 -0.919100
			-0.505349  0.064912 -0.860470
			-0.824079  0.049613 -0.564299
			 0.563567 -0.001497 -0.826069
			-0.985505 -0.040192  0.164819
			-0.946329 -0.004336  0.323175
			 0.800436  0.142867  0.582143
			 0.826195 -0.053796 -0.560810
			 0.761473 -0.283928 -0.582704
			 0.756524 -0.166500 -0.632416
			 0.986487  0.148399  0.069436
			 0.975048  0.012437 -0.221645
			 0.809298  0.200575  0.552092
			 0.075769  0.259675 -0.962719
			-0.070305  0.327472 -0.942242
			 0.309822 -0.043283 -0.949809
			 0.144064 -0.078754 -0.986430
			 0.411735 -0.194088 -0.890396
			-0.014071 -0.160048 -0.987009
			-0.233098 -0.124368 -0.964468
			-0.017117 -0.226284 -0.973911
			-0.385442 -0.221460 -0.895762
			 0.174538  0.173448 -0.969253
			 0.846244 -0.152250 -0.510578
			 0.711523 -0.088590 -0.697056
			 0.323890 -0.130486 -0.937053
			-0.863917  0.467386 -0.187610
			-0.535686 -0.078880  0.840725
			-0.724702  0.085447  0.683744
			-0.890740  0.144042  0.431084
			-0.863528 -0.037672  0.502892
			-0.842408  0.220987  0.491440
			-0.871790 -0.076574  0.483859
			-0.935764  0.185884  0.299656
			-0.998047  0.037745  0.049767
			-0.599253  0.015193  0.800415
			-0.621325 -0.124449  0.773607
			 0.696916  0.234727  0.677651
			-0.325457 -0.066041  0.943248
			 0.832841  0.187096  0.520932
			 0.370640 -0.206737  0.905475
			-0.940886 -0.062825  0.332846
			-0.874946 -0.071625  0.478894
			-0.242803 -0.024191  0.969774
			-0.580364 -0.057289  0.812340
			-0.891370 -0.063579  0.448795
			-0.372348 -0.867345 -0.330257
			 0.926990 -0.053929 -0.371189
			-0.339587 -0.046562  0.939421
			-0.872871 -0.070146  0.482883
			-0.125965 -0.084959  0.988390
			-0.203509 -0.044594  0.978057
			 0.799912  0.251018 -0.545097
			 0.588608  0.066765 -0.805657
			 0.074502  0.071752 -0.994636
			-0.623777  0.090034 -0.776399
			 0.343587  0.120944 -0.931300
			-0.996942 -0.023896  0.074399
			 0.803178 -0.509640 -0.308500
			 0.615449 -0.769695 -0.169682
			 0.856764 -0.431837 -0.281909
			 0.895026 -0.249053  0.370002
			-0.762556  0.571622 -0.302914
			-0.209561  0.397218 -0.893478
			 0.469487  0.080307 -0.879280
			 0.244705 -0.453063 -0.857236
			 0.625576 -0.069597 -0.777052
			-0.136419 -0.203394 -0.969547
			-0.473534 -0.143404 -0.869023
			-0.279548 -0.427861 -0.859528
			-0.327153 -0.335516 -0.883403
			-0.391534 -0.192662 -0.899768
			-0.565263 -0.250178 -0.786059
			 0.111986  0.205105 -0.972312
			-0.163160  0.329703 -0.929879
			 0.861239 -0.087605 -0.500593
			 0.960577 -0.220313 -0.169570
			 0.968808 -0.148118 -0.198675
			 0.615711 -0.061136 -0.785596
			 0.053469 -0.072072 -0.995965
			-0.307688 -0.064993 -0.949265
			-0.409042 -0.124038 -0.904046
			-0.354585 -0.173707 -0.918747
			-0.580044 -0.110994  0.806987
			-0.658517 -0.011996  0.752470
			-0.630904 -0.452409  0.630307
			-0.629748 -0.232432  0.741211
			-0.683128 -0.271473  0.677966
			-0.815279  0.080351  0.573467
			-0.855441  0.308164  0.416240
			-0.862908  0.254146  0.436806
			-0.738174 -0.052405  0.672571
			-0.768343 -0.319955  0.554327
			-0.611863 -0.115502 -0.782485
			-0.976850  0.123863  0.174421
			-0.490839 -0.831721 -0.259458
			-0.318783 -0.223387 -0.921127
			-0.604565 -0.089185  0.791547
			-0.470244 -0.137377  0.871779
			-0.195944 -0.631559  0.750159
			-0.072431 -0.648885  0.757431
			 0.398341 -0.855561  0.330665
			-0.452767 -0.066120  0.889174
			-0.820874 -0.068230  0.567018
			-0.990688  0.030955 -0.132590
			-0.931264 -0.120556  0.343822
			-0.727514 -0.587940 -0.353623
			 0.447811 -0.288301 -0.846373
			 0.280398 -0.225441 -0.933035
			 0.329794  0.044352 -0.943011
			 0.549147  0.218758 -0.806587
			 0.821067  0.205009 -0.532748
			-0.624852 -0.362628  0.691420
			-0.063577 -0.292346  0.954197
			-0.940687 -0.143974  0.307212
			-0.173079 -0.095174  0.980299
			-0.305490 -0.098778  0.947058
			 0.490081  0.188276 -0.851101
			 0.537373  0.174393 -0.825117
			 0.102824  0.146672 -0.983827
			-0.563674  0.104240 -0.819393
			 0.251280 -0.965534  0.067849
			 0.654591 -0.719892  0.230796
			 0.948056 -0.304948 -0.090536
			-0.858000  0.305519  0.412910
			-0.724670  0.469701 -0.504217
			 0.501860  0.047289 -0.863655
			 0.749431 -0.442823 -0.492200
			 0.583902 -0.043728 -0.810645
			-0.692037 -0.196872 -0.694497
			-0.534052 -0.512368 -0.672508
			-0.848281 -0.505557 -0.157581
			-0.331707  0.393157 -0.857553
			 0.692600 -0.077122 -0.717187
			 0.911049 -0.129338 -0.391485
			 0.921695 -0.234643  0.308904
			 0.893287 -0.271391  0.358309
			 0.977860 -0.206763 -0.032218
			 0.891853 -0.277927  0.356869
			 0.600856 -0.025268 -0.798958
			-0.003112 -0.013171 -0.999908
			-0.836826 -0.023258 -0.546975
			-0.938988 -0.139764 -0.314274
			-0.895998 -0.072679 -0.438069
			-0.866548 -0.198088 -0.458100
			-0.717665 -0.167324  0.675987
			-0.857349 -0.247619  0.451263
			-0.588772 -0.777027  0.222658
			-0.947526 -0.309725  0.079158
			-0.748212 -0.651565  0.125066
			-0.387675 -0.093032  0.917089
			 0.899439 -0.435451  0.037304
			-0.327903 -0.195992  0.924157
			-0.594610 -0.098292  0.797984
			 0.484972 -0.367408  0.793608
			 0.972915 -0.044345  0.226869
			-0.731254 -0.065854  0.678919
			-0.954707 -0.002838 -0.297533
			-0.850690 -0.214857  0.479754
			-0.871915 -0.172586  0.458234
			-0.864320 -0.371677  0.338831
			 0.293615 -0.514815 -0.805454
			-0.296880 -0.855810 -0.423618
			 0.919628 -0.140660 -0.366741
			 0.685112 -0.033207 -0.727680
			 0.817040 -0.394412 -0.420578
			 0.459999  0.046617 -0.886695
			 0.386441  0.198065 -0.900796
			 0.330290  0.173753 -0.927749
			 0.596422  0.011100 -0.802594
			 0.802359  0.054776 -0.594323
			 0.672785  0.081917 -0.735289
			-0.835615 -0.425513  0.347399
			-0.400920 -0.643172  0.652375
			-0.359981 -0.527695  0.769384
			-0.401209 -0.179363  0.898254
			-0.500446 -0.175346  0.847825
			 0.947580 -0.024312  0.318594
			 0.425698  0.027516 -0.904447
			-0.189857 -0.015804 -0.981684
			 0.913216 -0.348861  0.210553
			-0.770104  0.307182  0.559088
			-0.351452  0.200353  0.914516
			-0.818638  0.423401  0.388026
			 0.775106 -0.238810 -0.584963
			 0.258823  0.041403 -0.965037
			-0.968452 -0.190420  0.160750
			-0.717553  0.480546 -0.504176
			 0.926697 -0.107684 -0.360052
			 0.136568 -0.247106  0.959316
			 0.205102 -0.363205  0.908854
			 0.754963 -0.257861  0.602942
			 0.987097 -0.110722  0.115676
			 0.938037  0.193835 -0.287255
			 0.382445  0.199556 -0.902171
			-0.917867  0.034609 -0.395376
			-0.421147  0.272428 -0.865112
			-0.975019 -0.033892  0.219519
			-0.995063 -0.041498  0.090150
			-0.906466 -0.061854  0.417724
			-0.817950 -0.150774  0.555180
			-0.687604 -0.179933  0.703438
			-0.806425 -0.054406  0.588828
			-0.905770 -0.142466  0.399105
			-0.023077  0.278798  0.960072
			 0.986499 -0.159138 -0.038665
			 0.891839 -0.405633 -0.200212
			-0.515568 -0.164870  0.840837
			 0.974259 -0.007083  0.225320
			-0.959557 -0.100880 -0.262817
			-0.668958 -0.140558  0.729889
			-0.924853 -0.080779  0.371646
			-0.640550 -0.731619 -0.233300
			-0.787605 -0.615667 -0.025141
			-0.599936 -0.355043  0.716953
			-0.503807 -0.093340  0.858759
			-0.614038 -0.210528  0.760681
			-0.553762 -0.645565  0.525922
			 0.378016 -0.925514  0.022987
			 0.978454  0.014368 -0.205963
			 0.862155  0.113394 -0.493793
			 0.586194  0.132648 -0.799238
			 0.936048 -0.134249  0.325255
			 0.804681 -0.513514  0.297980
			 0.329814  0.220605 -0.917909
			 0.505632 -0.042397 -0.861707
			 0.509819 -0.150447 -0.847024
			 0.559150 -0.170445 -0.811357
			 0.688255 -0.163119 -0.706893
			 0.626116 -0.088660 -0.774673
			 0.474011 -0.038874 -0.879660
			-0.537560 -0.843173  0.009381
			-0.329589 -0.913386  0.238950
			-0.526012 -0.248722  0.813295
			-0.387812 -0.881591  0.269072
			-0.651681 -0.480537  0.586854
			 0.423454 -0.027540 -0.905499
			 0.313468 -0.029160 -0.949151
			-0.904202 -0.240901 -0.352683
			-0.135830 -0.122622 -0.983115
			-0.494080  0.236917  0.836514
			-0.857489  0.444819  0.258551
			 0.333580  0.489760  0.805518
			 0.886956  0.174313  0.427695
			 0.685717 -0.382934 -0.618994
			-0.363225  0.134459 -0.921948
			 0.316545 -0.180975 -0.931154
			-0.937288  0.296819 -0.182729
			-0.321088 -0.333104  0.886535
			 0.921905  0.029726  0.386274
			 0.073282 -0.254060  0.964408
			 0.371026 -0.090133  0.924238
			 0.978723  0.107907  0.174519
			 0.467887  0.542636 -0.697587
			 0.826394  0.497777 -0.263232
			 0.954911  0.269688  0.124155
			 0.001709  0.514767 -0.857328
			-0.463469  0.533979 -0.707151
			-0.715291 -0.019629  0.698551
			-0.936325  0.335670  0.103056
			-0.820128  0.457955 -0.343026
			-0.725433 -0.115725  0.678495
			 0.747927  0.211312  0.629248
			 0.040769  0.309820  0.949921
			 0.869254 -0.328117 -0.369778
			 0.916233 -0.353887 -0.187834
			 0.769086 -0.610143 -0.190348
			 0.558591 -0.780379 -0.281043
			-0.890378 -0.283969  0.355793
			-0.924457 -0.180452  0.335880
			-0.938081 -0.116975  0.326069
			-0.925485 -0.137002  0.353141
			-0.119970 -0.548638 -0.827408
			-0.090443 -0.673397 -0.733728
			 0.026550 -0.444558 -0.895356
			 0.601208 -0.415990  0.682277
			 0.271547 -0.102306  0.956972
			 0.207906 -0.473527  0.855890
			 0.959216 -0.110091  0.260357
			 0.870470 -0.002787 -0.492214
			 0.706792  0.192388 -0.680759
			 0.048280 -0.629686 -0.775348
			 0.224350 -0.387404 -0.894195
			 0.215005 -0.528262 -0.821408
			 0.341781 -0.566067 -0.750170
			 0.475419 -0.467161 -0.745478
			 0.470524 -0.302979 -0.828741
			 0.383229 -0.296681 -0.874709
			 0.335870 -0.266576 -0.903399
			 0.018655 -0.759571 -0.650157
			-0.213938 -0.947825 -0.236344
			-0.249511 -0.965999 -0.067750
			-0.276647 -0.950891 -0.138826
			-0.273253 -0.883565 -0.380323
			 0.047012 -0.067784 -0.996592
			 0.129768 -0.336401 -0.932735
			-0.870921 -0.169509 -0.461263
			-0.898025  0.281861  0.337796
			-0.818400  0.037148  0.573447
			 0.694127  0.146359  0.704817
			 0.945459  0.112946  0.305533
			 0.304393 -0.481451 -0.821919
			-0.865778 -0.075423 -0.494712
			-0.169907 -0.218479 -0.960936
			-0.989066  0.086642  0.119334
			-0.157336  0.196434  0.967811
			 0.241473  0.242313  0.939667
			 0.792705  0.329806  0.512686
			 0.064087  0.852271 -0.519160
			 0.481891  0.778496 -0.402152
			 0.315661  0.875296 -0.366355
			 0.620784  0.674451  0.399679
			 0.596114  0.800400  0.063309
			 0.523540  0.813284 -0.253921
			-0.382725  0.865037 -0.324395
			-0.851542  0.523778  0.023107
			-0.704668  0.142605  0.695059
			-0.722610  0.426748  0.543802
			-0.638318  0.329476  0.695698
			 0.292399 -0.300091  0.907991
			-0.023706  0.278041  0.960277
			 0.013556 -0.786564  0.617360
			-0.609522 -0.641437  0.465877
			-0.482170 -0.667014 -0.567983
			-0.801097 -0.590881  0.095410
			-0.684120 -0.158531 -0.711932
			-0.820705 -0.504910 -0.267411
			 0.286444 -0.250309 -0.924822
			 0.248932 -0.357569 -0.900098
			-0.005398 -0.331841 -0.943320
			-0.335678 -0.318352 -0.886551
			 0.213287 -0.781938 -0.585731
			-0.190120 -0.547458 -0.814951
			 0.500656 -0.748456 -0.434922
			-0.114418 -0.634119 -0.764723
			-0.253678 -0.734432 -0.629490
			-0.652549 -0.704143 -0.279933
			-0.314491 -0.794131 -0.520049
			 0.149024 -0.692178 -0.706174
			 0.318342 -0.540767 -0.778608
			 0.314825 -0.432282 -0.844995
			 0.236690 -0.609107 -0.756945
			 0.208802 -0.692383 -0.690658
			 0.317692 -0.474967 -0.820657
			 0.244358 -0.710624 -0.659774
			 0.241307 -0.708819 -0.662832
			 0.256125 -0.672531 -0.694336
			 0.382544 -0.605965 -0.697472
			 0.177170 -0.813406 -0.554060
			 0.049895 -0.521928 -0.851529
			 0.245052 -0.719901 -0.649378
			-0.667366 -0.112414  0.736197
			-0.960956 -0.223230  0.163497
			-0.486932 -0.042458  0.872407
			 0.092461  0.569832  0.816543
			-0.373031  0.451725  0.810427
			-0.032838  0.995542 -0.088416
			 0.254169  0.951395 -0.173911
			 0.327568  0.904260 -0.273886
			 0.424163  0.899338 -0.106188
			 0.493505  0.815304 -0.302872
			 0.073251  0.842682  0.533406
			 0.284597  0.897321  0.337371
			 0.239949  0.958445  0.154298
			 0.371074  0.908014 -0.194461
			 0.498367  0.815143 -0.295249
			-0.620779  0.730325  0.285060
			-0.189959  0.959098  0.209873
			-0.695686  0.540080  0.473641
			-0.590718  0.427217  0.684498
			-0.457302  0.676539  0.577209
			-0.624996  0.535561  0.567938
			-0.249416 -0.935427 -0.250536
			 0.294845 -0.880314 -0.371636
			 0.438284 -0.277556 -0.854909
			 0.098087 -0.209703 -0.972833
			 0.537792 -0.158892 -0.827969
			 0.528249 -0.098471 -0.843360
			 0.318772 -0.123730 -0.939721
			-0.263753 -0.195887 -0.944491
			-0.413843 -0.371794 -0.830965
			-0.577530 -0.182945 -0.795606
			-0.782026 -0.188855 -0.593944
			-0.468650 -0.529008 -0.707473
			-0.580832 -0.623844 -0.522927
			-0.748418 -0.634383 -0.193463
			-0.871512 -0.458839  0.173013
			-0.808446 -0.519866  0.275962
			-0.500320 -0.837855 -0.218356
			-0.427991 -0.868265 -0.250876
			-0.259993 -0.882079 -0.392862
			-0.116704 -0.867287 -0.483935
			-0.182642 -0.967804 -0.173195
			-0.098961 -0.990234 -0.098198
			 0.247677 -0.919996 -0.303748
			-0.013293 -0.997895  0.063482
			 0.373813 -0.538184 -0.755395
			 0.376843 -0.566455 -0.732884
			 0.445556 -0.531312 -0.720546
			 0.510285 -0.544027 -0.666066
			 0.565344 -0.475503 -0.674006
			 0.470346 -0.679178 -0.563465
			 0.462215 -0.773132 -0.434309
			 0.429897 -0.888556 -0.160178
			 0.329910  0.769381  0.547003
			-0.026164  0.638646  0.769056
			-0.401247  0.682665  0.610713
			-0.359550  0.570886  0.738115
			 0.193339  0.976828  0.091804
			 0.471796  0.875461 -0.104774
			 0.491781  0.844038 -0.213897
			 0.470627  0.861692 -0.189727
			 0.478712  0.854631 -0.201098
			 0.444020  0.862543 -0.242622
			-0.132703  0.946654  0.293662
			-0.243047  0.904689  0.349951
			 0.011947  0.985432  0.169649
			 0.036299  0.998829 -0.031989
			 0.208692  0.972911 -0.099454
			 0.335774  0.904434 -0.263162
			 0.091358  0.938606 -0.332675
			 0.112791  0.929934 -0.350002
			-0.572838  0.687423  0.446438
			-0.331508  0.806836  0.488998
			 0.038910  0.894224  0.445926
			-0.500759  0.692494  0.519320
			-0.072460  0.983914  0.163286
			-0.013861  0.977855  0.208825
			-0.366133  0.771584  0.520197
			 0.330389 -0.887401 -0.321502
			 0.355358 -0.934387 -0.025308
			 0.592735 -0.797318 -0.113794
			 0.708312 -0.692585 -0.136455
			 0.521202 -0.268885 -0.809969
			 0.019490 -0.137085 -0.990367
			 0.575771 -0.214955 -0.788848
			 0.668665 -0.143756 -0.729535
			 0.347027 -0.090983 -0.933431
			 0.545875  0.026278 -0.837454
			 0.643127  0.023397 -0.765402
			-0.660266 -0.086242 -0.746064
			-0.345474 -0.121809 -0.930489
			-0.670611 -0.268911 -0.691352
			-0.867026 -0.098332 -0.488464
			-0.875894 -0.240710 -0.418172
			-0.927996 -0.123316 -0.351592
			-0.955780 -0.114117 -0.271039
			-0.995207 -0.050791 -0.083562
			-0.825444 -0.418460 -0.378857
			-0.900677 -0.428491 -0.071945
			-0.881006 -0.451021  0.142857
			-0.866653 -0.316892  0.385346
			-0.911167 -0.241122  0.334117
			-0.697259 -0.705219  0.128435
			-0.675661 -0.729950  0.103223
			-0.774738 -0.199584  0.599956
			-0.772881 -0.497928  0.393347
			-0.814227 -0.256011  0.521050
			-0.672164 -0.688681  0.271872
			-0.577542 -0.722081  0.380848
			-0.458540 -0.736816  0.496833
			-0.319748 -0.751756  0.576736
			 0.095250 -0.897348  0.430922
			 0.607454 -0.241706 -0.756689
			 0.637173 -0.447817 -0.627272
			 0.692417 -0.279669 -0.665090
			 0.602240 -0.620251 -0.502589
			 0.567044 -0.810249  0.148181
			-0.206417  0.903626  0.375304
			 0.109316  0.734036  0.670255
			-0.352077  0.802085  0.482391
			-0.105412  0.994090  0.025967
			 0.265595  0.940137  0.213546
			 0.494657  0.868560  0.030308
			 0.539798  0.834939 -0.107217
			 0.551544  0.832697  0.049137
			 0.240115  0.961287  0.135174
			 0.333533  0.933322  0.132912
			 0.229520  0.965331  0.124327
			 0.219021  0.967586  0.125723
			 0.153970  0.983227  0.097762
			-0.122807  0.989811  0.072058
			-0.284989  0.954509  0.087716
			-0.029125  0.998769  0.040144
			-0.132847  0.978432 -0.158183
			 0.020590  0.956525 -0.290923
			-0.132175  0.991058 -0.018280
			 0.014251  0.999341  0.033373
			-0.216550  0.974099 -0.065094
			-0.035808  0.976342 -0.213247
			-0.321838  0.946775  0.006114
			-0.227830  0.789122  0.570422
			-0.046208  0.827493  0.559572
			 0.151600  0.788413  0.596173
			 0.272817  0.901632  0.335605
			 0.227112  0.850967  0.473576
			-0.177869  0.846174  0.502346
			 0.286101  0.823519 -0.489859
			 0.390736  0.837624 -0.381722
			 0.468923  0.816305 -0.337279
			 0.060033  0.978140  0.199093
			 0.581858 -0.780756 -0.227731
			 0.557078 -0.825348  0.092003
			 0.566516 -0.821265  0.067701
			 0.164910 -0.098589 -0.981369
			-0.082611 -0.037304 -0.995884
			 0.731523 -0.136136 -0.668088
			 0.746490 -0.321203 -0.582736
			 0.782194 -0.274983 -0.559068
			 0.306995  0.015402 -0.951586
			 0.693948  0.091027 -0.714248
			 0.555092  0.143972 -0.819234
			 0.687201  0.090848 -0.720764
			 0.697667 -0.024005 -0.716020
			 0.613932  0.093215 -0.783836
			 0.696057  0.093569 -0.711864
			 0.639772  0.045698 -0.767205
			 0.615928  0.122936 -0.778151
			-0.955396  0.044035 -0.292027
			-0.790605 -0.015191 -0.612138
			-0.534232  0.022043 -0.845050
			-0.993649  0.010741 -0.112008
			-0.995269 -0.089882 -0.036902
			-0.960258 -0.254940 -0.113624
			-0.966745  0.055933  0.249552
			-0.957226  0.023876  0.288355
			-0.986855  0.020384  0.160315
			-0.977189 -0.183341  0.107183
			-0.806495 -0.146215  0.572876
			-0.935025  0.005277  0.354544
			-0.845248 -0.025375  0.533772
			-0.737490 -0.224933  0.636800
			-0.762828 -0.087193  0.640695
			-0.743542 -0.397755  0.537528
			-0.679329 -0.414304  0.605694
			-0.580332 -0.460545  0.671650
			-0.478469 -0.498203  0.723092
			-0.295586 -0.705708  0.643898
			-0.333158 -0.613356  0.716101
			-0.049312 -0.654376  0.754559
			 0.254040 -0.708941  0.657926
			 0.685921 -0.419129 -0.594847
			 0.707873 -0.490955 -0.507818
			 0.705485 -0.611888 -0.357609
			 0.502415 -0.806755  0.311008
			-0.374789  0.879310  0.293849
			-0.362351  0.925659  0.108890
			-0.151136  0.986949 -0.055584
			 0.198377  0.777005 -0.597419
			 0.362349  0.890064  0.276567
			 0.434354  0.859007  0.271006
			 0.499460  0.863476  0.070356
			 0.650787  0.758781  0.026954
			 0.623830  0.775199  0.099515
			 0.545246  0.836333  0.057047
			 0.380368  0.866313  0.323761
			 0.353850  0.811675  0.464731
			 0.393038  0.772680  0.498485
			 0.544404  0.787507  0.288889
			-0.166152  0.803452  0.571715
			-0.044696  0.797157  0.602115
			-0.121002  0.854708  0.504810
			-0.193757  0.822442  0.534834
			-0.287645  0.818178  0.497841
			-0.194581  0.980848  0.008678
			-0.249851  0.968204  0.012460
			-0.102391  0.990769 -0.088838
			 0.084756  0.931209 -0.354494
			-0.121305  0.976828 -0.176329
			 0.002236  0.936039 -0.351890
			 0.048538  0.909441 -0.412990
			-0.078573  0.940910 -0.329417
			-0.120496  0.992258  0.030082
			-0.353751  0.912464 -0.205597
			-0.445794  0.895122 -0.004896
			-0.243773  0.929185 -0.277831
			-0.234901  0.959734 -0.154055
			-0.202296  0.963242 -0.176754
			-0.364390  0.928308  0.073917
			-0.442423  0.784860  0.433887
			-0.576895  0.752100  0.318650
			-0.379380  0.923767  0.052206
			-0.558593  0.755359  0.342648
			-0.550293  0.776402  0.307211
			 0.170316  0.952714  0.251651
			 0.209692  0.938510  0.274279
			 0.245020  0.874795  0.417971
			 0.435998  0.794182  0.423297
			 0.395590  0.800607  0.450041
			 0.433486  0.843844  0.316255
			 0.391370  0.802097  0.451077
			 0.518061  0.798404  0.306860
			 0.314528  0.862563  0.396305
			 0.386002  0.856704  0.342141
			 0.532160  0.814608  0.230693
			 0.192418  0.969648  0.150858
			 0.450807  0.453144 -0.769047
			 0.551561  0.445777 -0.705027
			 0.636368  0.431141 -0.639651
			 0.662235  0.414221 -0.624392
			 0.509592  0.791503 -0.337400
			 0.788937 -0.589490 -0.173436
			 0.731779 -0.680906  0.029437
			 0.667862 -0.720030  0.188459
			 0.106894  0.105508 -0.988657
			-0.208614  0.135141 -0.968616
			 0.866708 -0.079528 -0.492435
			 0.859511 -0.192851 -0.473338
			 0.796712 -0.441407 -0.412807
			 0.845533 -0.390381 -0.364248
			 0.910788 -0.303103 -0.280347
			 0.324408  0.179820 -0.928668
			 0.658307  0.096864 -0.746491
			 0.279737  0.245982 -0.928030
			 0.464824  0.140379 -0.874204
			 0.650531  0.109925 -0.751482
			 0.761647  0.070303 -0.644167
			 0.581643 -0.052359 -0.811757
			 0.661144  0.067892 -0.747181
			 0.560341 -0.020221 -0.828015
			-0.986520  0.093981  0.133960
			-0.891028  0.088796 -0.445180
			-0.987798  0.150272 -0.040905
			-0.751523  0.175459 -0.635946
			-0.491918  0.273070 -0.826710
			-0.984939 -0.085024  0.150552
			-0.928939 -0.007599  0.370155
			-0.880287 -0.052130  0.471569
			-0.606300 -0.110473  0.787525
			-0.616100 -0.299168  0.728642
			-0.618095 -0.106506  0.778855
			-0.880673 -0.057286  0.470249
			-0.714022 -0.097373  0.693319
			-0.508827 -0.315891  0.800817
			-0.355260 -0.374317  0.856550
			-0.095538 -0.479316  0.872427
			 0.176889 -0.512767  0.840107
			-0.092046 -0.355506  0.930131
			 0.465583 -0.670141  0.578052
			-0.133946  0.951019 -0.278606
			 0.256855  0.684278 -0.682487
			 0.094505  0.799764 -0.592829
			 0.410463  0.446479 -0.795095
			 0.332583  0.806230  0.489266
			 0.294822  0.799826  0.522836
			 0.433262  0.808694  0.397868
			 0.450432  0.872032  0.191497
			 0.458446  0.597399  0.657983
			 0.486953  0.776319  0.400256
			 0.505905  0.822592  0.259621
			 0.555662  0.745386  0.368294
			 0.437619  0.726722  0.529495
			-0.025741  0.694525  0.719008
			-0.001972  0.633324  0.773884
			 0.083439  0.564252  0.821375
			 0.351064  0.655339  0.668794
			-0.346547  0.632057  0.693116
			-0.277631  0.594328  0.754782
			-0.408177  0.647229  0.643806
			-0.508455  0.637691  0.578639
			-0.474122  0.876525 -0.083137
			-0.387451  0.905672 -0.172160
			-0.583505  0.809536 -0.064599
			-0.480862  0.876697  0.013173
			-0.372334  0.927663 -0.028445
			-0.556389  0.830265 -0.033021
			-0.250663  0.915857 -0.313645
			 0.106744  0.622159 -0.775579
			-0.142412  0.756109 -0.638762
			 0.264467  0.725425 -0.635465
			 0.380843  0.760711 -0.525621
			 0.216324  0.792848 -0.569733
			 0.061772  0.817524 -0.572572
			 0.288990  0.627516 -0.722986
			 0.357350  0.598266 -0.717202
			-0.740049  0.671328 -0.040565
			-0.586481  0.805898 -0.081041
			-0.689411  0.700577  0.184129
			-0.597484  0.793192  0.117727
			 0.952442  0.303810  0.023549
			 0.361479  0.885593  0.291647
			-0.623866  0.776076  0.092182
			-0.585590  0.645962  0.489711
			-0.705328  0.624410  0.335596
			-0.750886  0.453583  0.480034
			-0.662416  0.492720  0.564299
			 0.517574  0.793472 -0.320187
			 0.469495  0.858377 -0.206793