<?xml version="1.0"?>
<VTKFile type="PolyData" version="0.1" byte_order="LittleEndian" compressor="vtkZLibDataCompressor">
	<PolyData>
		<Piece NumberOfPoints="2542" NumberOfVerts="0" NumberOfLines="0" NumberOfStrips="0" NumberOfPolys="5080">
		<PointData Normals="Normals">
		<DataArray type="Float32" Name="Normals" NumberOfComponents="3" format="ascii">
			 0.230881  0.547090  0.804604
			 0.166003  0.475696  0.863803
			-0.001318  0.531624  0.846980
			 0.075978  0.647911  0.757918
			 0.219253  0.536783  0.814734
			 0.083048  0.597599  0.797482
			 0.317651  0.594070  0.739039
			 0.064372  0.614871  0.785996
			-0.162195  0.629715  0.759705
			-0.216517  0.496974  0.840320
			-0.002862  0.544826  0.838544
			 0.034878  0.631310  0.774746
			-0.401897  0.410488  0.818522
			-0.222215  0.467849  0.855417
			-0.097363  0.442995  0.891222
			 0.191000  0.644404  0.740447
			-0.036298  0.631238  0.774739
			 0.089444  0.579889  0.809771
			-0.248920  0.609169  0.752962
			-0.173404  0.605806  0.776486
			-0.130168  0.570626  0.810828
			 0.113214  0.619668  0.776656
			-0.119487  0.660598  0.741170
			-0.375323  0.578508  0.724197
			 0.177525  0.655468  0.734062
			 0.226632  0.515603  0.826312
			 0.007292  0.702451  0.711694
			-0.500668  0.480689  0.719909
			-0.568496  0.522500  0.635458
			-0.667489  0.348950  0.657793
			-0.344157  0.505390  0.791288
			-0.328261  0.337418  0.882266
			-0.505965  0.345979  0.790125
			-0.708233  0.267448  0.653359
			-0.091730  0.266511  0.959457
			-0.324860  0.162041  0.931777
			-0.097617  0.608752  0.787332
			 0.138733  0.627904  0.765826
			-0.437985  0.507565  0.741988
			 0.027118  0.454248  0.890462
			-0.465536  0.481593  0.742525
			-0.199639  0.577489  0.791613
			-0.173029  0.667006  0.724682
			-0.375755  0.651890  0.658671
			-0.494216  0.529747  0.689289
			 0.014935  0.558067  0.829662
			 0.087936  0.614917  0.783673
			 0.003327  0.798145  0.602456
			-0.140375  0.788524  0.598769
			-0.297817  0.498274  0.814265
			-0.171737  0.480495  0.860018
			-0.473165  0.619599  0.626268
			-0.688846  0.398876  0.605300
			-0.698619  0.488104  0.523150
			-0.552407  0.628684  0.547360
			-0.850051  0.229609  0.474018
			-0.855724  0.227468  0.464752
			-0.865968  0.306459  0.395200
			-0.687703  0.412645  0.597318
			-0.520749  0.152316  0.840012
			-0.604821  0.278935  0.745913
			-0.717248  0.061090  0.694135
			-0.883508  0.049398  0.465804
			-0.184845  0.215147  0.958929
			-0.332315  0.043126  0.942182
			-0.624027 -0.014599  0.781266
			-0.554863  0.469126  0.687057
			-0.340338  0.650559  0.678928
			-0.136422  0.625127  0.768508
			-0.087597  0.543655  0.834725
			-0.195712  0.409916  0.890879
			-0.418133  0.534366  0.734587
			-0.511047  0.582808  0.631795
			-0.371801  0.761004  0.531636
			-0.146377  0.502997  0.851803
			-0.302989  0.587853  0.750084
			 0.096284  0.835416  0.541118
			-0.049114  0.757284  0.651236
			-0.254929  0.611522  0.749034
			-0.214303  0.836891  0.503674
			-0.123173  0.899694  0.418783
			-0.517485  0.549252  0.656150
			-0.612842  0.534163  0.582318
			-0.805836  0.402781  0.434045
			-0.737504  0.472161  0.482858
			-0.565870  0.625949  0.536637
			-0.695150  0.609391  0.381326
			-0.821085  0.449900  0.351297
			-0.943337  0.149513  0.296244
			-0.955213  0.286144  0.075434
			-0.875459  0.388048  0.288081
			-0.696523  0.534928  0.478235
			-0.944848  0.247663  0.214300
			-0.959279  0.022819  0.281537
			-0.868869  0.017594  0.494730
			-0.358839  0.147893  0.921609
			-0.450392 -0.002400  0.892828
			-0.815305 -0.016181  0.578805
			-0.555939 -0.075784  0.827761
			-0.519295 -0.095739  0.849215
			-0.600805  0.596078  0.532657
			-0.305499  0.560860  0.769485
			-0.462898  0.281030  0.840683
			-0.554588  0.735588  0.389027
			-0.426954  0.850534  0.307088
			-0.385764  0.565163  0.729231
			 0.041505  0.928696  0.368511
			 0.105163  0.981077  0.162571
			-0.151701  0.824800  0.544694
			-0.247973  0.742717  0.621997
			-0.445406  0.632095  0.634090
			-0.456042  0.752920  0.474486
			-0.210019  0.942305  0.260678
			 0.105512  0.988827  0.105298
			-0.465436  0.744801  0.478165
			-0.602769  0.688129  0.403915
			-0.363985  0.737827  0.568442
			-0.684749  0.638868  0.350666
			-0.688035  0.624020  0.370414
			-0.670802  0.643613  0.368493
			-0.627306  0.619512  0.471903
			-0.828704  0.520316  0.206207
			-0.725822  0.365763  0.582580
			-0.882187  0.349487  0.315603
			-0.985833  0.136013  0.098156
			-0.984501  0.100590  0.143668
			-0.909261  0.412786  0.053412
			-0.909930  0.360720 -0.204715
			-0.970710  0.180748 -0.158279
			-0.781355  0.557510  0.280477
			-0.987991  0.146780  0.048265
			-0.917434 -0.011909  0.397709
			-0.973035  0.027563  0.229005
			-0.950485  0.014061  0.310453
			-0.392421  0.017020  0.919628
			-0.501511  0.011776  0.865071
			-0.584815  0.056381  0.809205
			-0.589628 -0.049585  0.806152
			-0.835789 -0.063262  0.545395
			-0.914272 -0.015324  0.404811
			-0.605059 -0.043841  0.794972
			-0.551982 -0.054476  0.832074
			-0.313717 -0.048711  0.948266
			-0.679364  0.489402  0.546764
			-0.536081  0.525966  0.660285
			-0.632946  0.265971  0.727076
			-0.608541  0.759451  0.230025
			-0.527427  0.826162  0.198186
			-0.622229  0.777342  0.092574
			-0.713862  0.693627  0.096349
			-0.142910  0.975295  0.168451
			 0.046376  0.998837  0.013166
			 0.216308  0.968074 -0.126664
			-0.352369  0.857022  0.375964
			-0.189183  0.870305  0.454730
			-0.257116  0.746015  0.614291
			-0.494240  0.679318  0.542452
			-0.746794  0.611694  0.261016
			-0.658773  0.749802 -0.061767
			-0.404911  0.912785  0.053571
			-0.174290  0.970995  0.163684
			-0.438577  0.892926  0.101653
			 0.425519  0.895944 -0.127350
			-0.008619  0.999911 -0.010160
			-0.305326  0.951330  0.041801
			-0.527336  0.758736  0.382408
			-0.309924  0.870139  0.383150
			-0.399080  0.861879  0.312889
			-0.620469  0.698510  0.356514
			-0.462888  0.823880  0.327041
			-0.480234  0.809662  0.337376
			-0.594494  0.698462  0.398406
			-0.545189  0.597897  0.587613
			-0.656109  0.581884  0.480554
			-0.571161  0.626141  0.530775
			-0.827307  0.493134  0.269040
			-0.459603  0.632966  0.622992
			-0.489712  0.748216  0.447612
			-0.521729  0.546577  0.655021
			 0.757687  0.178152  0.627831
			-0.720532  0.171852  0.671789
			-0.178956  0.348795  0.919955
			-0.880031  0.267995  0.392076
			-0.986899  0.149859 -0.059773
			-0.789668  0.605592 -0.098399
			-0.866711  0.345045 -0.360215
			-0.775772  0.577468 -0.254380
			-0.920250  0.233595 -0.313963
			-0.924734  0.307957 -0.223672
			-0.982626  0.168491 -0.077831
			-0.999649  0.025318 -0.007791
			-0.985462 -0.024824  0.168074
			-0.965254 -0.044186  0.257551
			-0.451759  0.063129  0.889904
			-0.530809  0.007134  0.847462
			-0.476372  0.050821  0.877774
			-0.307028  0.030881  0.951199
			-0.450958  0.013052  0.892450
			-0.500160 -0.008116  0.865895
			-0.645825  0.100815  0.756800
			-0.481170 -0.024690  0.876280
			-0.621276 -0.024176  0.783219
			-0.950390 -0.126355  0.284243
			-0.879656 -0.072110  0.470112
			-0.635270  0.768352 -0.077893
			-0.087341  0.979649 -0.180719
			 0.125725  0.926238 -0.355354
			 0.017257  0.967236  0.253292
			-0.054366  0.928051  0.368465
			-0.215982  0.901578  0.374846
			-0.179259  0.954128  0.239805
			-0.229879  0.852136  0.470127
			-0.335493  0.824415  0.455833
			-0.356916  0.672532  0.648315
			-0.485878  0.723402  0.490523
			-0.695395  0.577352  0.427891
			-0.884252  0.466665 -0.017965
			-0.886425  0.446617  0.121590
			-0.866445  0.479299 -0.139806
			-0.484170  0.812400 -0.324940
			-0.203047  0.942372 -0.265908
			 0.563827  0.811575 -0.153119
			 0.801660  0.470490 -0.368755
			 0.322892  0.940397 -0.106746
			-0.234734  0.962428 -0.136500
			-0.443418  0.892780 -0.079522
			-0.085592  0.973084  0.213967
			-0.154503  0.978294  0.138096
			-0.198076  0.963534  0.179908
			-0.410829  0.844716  0.343036
			-0.247065  0.923759  0.292622
			-0.301149  0.820670  0.485602
			-0.326079  0.532135  0.781348
			-0.543801  0.462375  0.700350
			-0.364334  0.469631  0.804181
			-0.394003  0.491069  0.776925
			-0.344241  0.476282  0.809107
			-0.619728  0.498976  0.605772
			-0.645957  0.404764  0.647229
			-0.792100  0.396560  0.464024
			-0.224169  0.553929  0.801818
			-0.267556  0.657329  0.704509
			 0.967476  0.059746  0.245807
			-0.792841  0.083361  0.603701
			-0.608217  0.085484  0.789154
			-0.774099  0.121626  0.621271
			-0.844112  0.297006 -0.446388
			-0.725846  0.564222 -0.393449
			-0.739336  0.466513 -0.485540
			-0.782722  0.335890 -0.523952
			-0.941508  0.267949 -0.204367
			-0.883738  0.285786 -0.370585
			-0.773049  0.409900 -0.484124
			-0.941106  0.134059 -0.310400
			-0.965038  0.038022 -0.259337
			-0.990301  0.027782 -0.136129
			-0.997001 -0.054265 -0.055179
			-0.970897 -0.052536 -0.233665
			-0.960322 -0.028223 -0.277461
			-0.991597 -0.124544  0.034980
			-0.980042 -0.164819  0.111138
			-0.972280 -0.119817  0.200789
			-0.345109 -0.000225  0.938563
			-0.514767  0.030774  0.856778
			-0.475534 -0.011750  0.879619
			-0.623750 -0.007826  0.781585
			-0.585683 -0.119417  0.801695
			-0.625954 -0.080752  0.775668
			-0.402141  0.025829  0.915213
			-0.609906  0.022086  0.792166
			-0.561945 -0.025340  0.826786
			-0.351284 -0.005288  0.936254
			-0.668623 -0.025960  0.743148
			-0.765100 -0.027894  0.643306
			-0.966081 -0.140325  0.216785
			-0.968027 -0.236610  0.083306
			-0.965140 -0.185857  0.184287
			-0.950755 -0.094286  0.295254
			-0.839643 -0.036657  0.541900
			-0.617031  0.738044 -0.273064
			 0.518438  0.533422 -0.668343
			 0.261016  0.581818 -0.770298
			 0.009793  0.939092  0.343526
			 0.132355  0.959039  0.250451
			 0.283896  0.958428  0.028623
			 0.047613  0.994119  0.097268
			-0.216171  0.957929  0.188789
			-0.414367  0.897077  0.153473
			-0.485311  0.815591  0.315093
			-0.568465  0.806578  0.162112
			-0.526090  0.798974  0.291323
			-0.684516  0.702892  0.193341
			-0.859606  0.483161  0.166231
			-0.951185  0.288614  0.109311
			-0.643536  0.765169 -0.019414
			-0.929652  0.283107  0.235789
			-0.591216  0.631026 -0.502264
			 0.630415  0.474527 -0.614329
			 0.767211  0.610443 -0.196842
			 0.177655  0.957163 -0.228644
			 0.441921  0.856529 -0.266579
			 0.594292  0.659032 -0.460970
			 0.986084  0.143787 -0.083446
			 0.373090  0.214093 -0.902756
			 0.959973  0.276137  0.046912
			-0.429323  0.823300 -0.371295
			 0.110707  0.990119 -0.086070
			-0.079777  0.990224  0.114417
			 0.015219  0.999555 -0.025650
			-0.065021  0.995126  0.074135
			 0.158323  0.982949  0.093512
			 0.048313  0.991218  0.123096
			-0.288789  0.872652  0.393800
			-0.010225  0.870078  0.492807
			 0.010115  0.948717  0.315965
			 0.085564  0.761019  0.643062
			-0.062877  0.728109  0.682571
			-0.038425  0.463455  0.885287
			-0.090220  0.397125  0.913319
			-0.043078  0.435829  0.898998
			-0.272684  0.353311  0.894883
			-0.416977  0.196557  0.887410
			-0.589593  0.342186  0.731634
			-0.204369  0.267708  0.941576
			-0.300500  0.242077  0.922550
			-0.297549  0.367170  0.881278
			-0.173490  0.216197  0.960812
			-0.632740  0.372459  0.678906
			-0.597114  0.155060  0.787027
			 0.091372  0.561115  0.822679
			 0.201973  0.375134  0.904700
			-0.603104 -0.070289  0.794559
			-0.640031  0.507437 -0.576947
			-0.607340  0.596922 -0.524234
			-0.715616  0.300774 -0.630420
			-0.643498  0.570837 -0.509956
			-0.668124  0.315561 -0.673818
			-0.648813  0.369261 -0.665348
			-0.843588  0.168016 -0.510030
			-0.739261  0.331106 -0.586397
			-0.872933  0.010500 -0.487727
			-0.927855 -0.184398 -0.324163
			-0.898060 -0.142005 -0.416321
			-0.940048 -0.282679 -0.190793
			-0.521396 -0.087248  0.848843
			-0.396565 -0.154026  0.904993
			-0.466087 -0.039568  0.883853
			-0.335880 -0.109164  0.935558
			-0.519239 -0.041963  0.853598
			-0.360406 -0.246523  0.899630
			-0.338895 -0.229005  0.912528
			-0.316234 -0.188658  0.929733
			-0.431234 -0.158275  0.888249
			-0.472976 -0.066304  0.878577
			-0.401705 -0.194812  0.894808
			-0.266631 -0.077202  0.960702
			-0.241348 -0.143802  0.959725
			-0.726785 -0.016171  0.686674
			-0.613760 -0.015821  0.789334
			-0.584328 -0.018261  0.811312
			-0.981079 -0.176909  0.078659
			-0.979113 -0.203008  0.011177
			-0.992634 -0.106446  0.057861
			-0.920948 -0.349416 -0.172522
			-0.965359 -0.252227  0.066806
			-0.971926 -0.079191  0.221562
			-0.660463  0.007292  0.750823
			-0.925041 -0.018612  0.379412
			-0.596508  0.043006  0.801454
			-0.583648  0.027143  0.811553
			-0.742821  0.011978  0.669383
			 0.950588  0.071685 -0.302066
			 0.942823  0.009920 -0.333147
			-0.135419  0.987969  0.074690
			 0.237805  0.965120  0.109513
			-0.015172  0.999686 -0.019937
			 0.279319  0.948526 -0.149263
			 0.354312  0.919155 -0.172095
			 0.436087  0.867754 -0.238393
			 0.233299  0.969003 -0.081267
			 0.383652  0.915336 -0.122360
			 0.390274  0.914502 -0.106640
			 0.221798  0.965749 -0.134666
			-0.533768  0.817244 -0.217265
			-0.725464  0.668641 -0.163157
			-0.765357  0.643006  0.027791
			-0.765791  0.642869  0.016831
			-0.869989  0.492900 -0.012987
			-0.905409  0.424285  0.014740
			-0.891216  0.364770  0.269587
			-0.698084  0.622665  0.353507
			-0.743120  0.553342 -0.376278
			-0.724844  0.642069  0.249697
			-0.814459  0.435698  0.383176
			-0.702363  0.420563 -0.574295
			 0.160599  0.845874 -0.508631
			 0.555536  0.778771 -0.291368
			 0.863321  0.439582  0.247881
			 0.778850  0.602311  0.174970
			-0.040545  0.887659 -0.458713
			-0.591825  0.782438 -0.193738
			 0.717189  0.512870 -0.471809
			 0.221525  0.896775  0.383042
			-0.362134  0.713635 -0.599653
			 0.106245  0.977870 -0.180229
			 0.277767  0.881975 -0.380745
			 0.028351  0.998534  0.046105
			 0.233212  0.971942 -0.030663
			 0.829776  0.557568  0.024286
			 0.836944  0.547063  0.015719
			 0.093704  0.944357  0.315292
			-0.003737  0.999566  0.029222
			 0.095937  0.990480  0.098714
			 0.146538  0.945311  0.291401
			 0.706732  0.707404  0.010426
			 0.230200  0.826957  0.512982
			 0.303264  0.715762  0.629059
			 0.267055  0.819428  0.507169
			 0.289955  0.553066  0.781053
			 0.346367  0.614476  0.708837
			 0.183167  0.354431  0.916967
			 0.216856  0.322375  0.921438
			 0.178242  0.150584  0.972396
			-0.206772  0.099392  0.973328
			-0.344419  0.009161  0.938771
			-0.164395 -0.030826  0.985913
			-0.144375  0.004953  0.989511
			 0.036600 -0.024397  0.999032
			-0.432246 -0.106445  0.895451
			 0.281153  0.416874  0.864389
			 0.386995  0.374153  0.842760
			 0.484863  0.134986  0.864111
			 0.425404  0.200845  0.882436
			 0.439387  0.235087  0.866991
			-0.549935  0.464225 -0.694310
			-0.533661  0.570322 -0.624451
			-0.441615  0.618887 -0.649581
			-0.598496  0.415198 -0.685138
			-0.624941  0.469524 -0.623696
			-0.646483  0.307492 -0.698218
			-0.653698  0.314006 -0.688534
			-0.604798  0.347050 -0.716782
			-0.685089  0.317131 -0.655805
			-0.551539  0.342182 -0.760734
			-0.761691  0.171876 -0.624728
			-0.820896 -0.043570 -0.569414
			-0.724097  0.120567 -0.679078
			-0.831312 -0.200081 -0.518543
			-0.791589 -0.314520 -0.523892
			-0.822533 -0.354347 -0.444834
			-0.811425 -0.318174 -0.490261
			-0.343890 -0.209864  0.915258
			-0.427500 -0.132812  0.894206
			-0.248885 -0.157228  0.955686
			-0.217093 -0.253999  0.942526
			-0.245061 -0.250256  0.936652
			-0.282221 -0.021971  0.959098
			-0.201463 -0.309424  0.929338
			-0.037750 -0.236755  0.970836
			-0.159884 -0.147591  0.976040
			-0.183346 -0.262990  0.947217
			-0.210223 -0.274324  0.938378
			-0.189267 -0.180691  0.965158
			-0.226622 -0.268048  0.936372
			-0.183794 -0.265118  0.946537
			 0.220407 -0.272954  0.936438
			 0.255570 -0.167813  0.952115
			-0.959239 -0.237380 -0.153334
			-0.960081 -0.255401 -0.114079
			-0.927432 -0.234992 -0.290944
			-0.978827 -0.139902 -0.149416
			-0.988760 -0.107145 -0.104277
			-0.988194 -0.084624  0.127719
			-0.873874 -0.298322 -0.383860
			-0.989540 -0.052319  0.134439
			-0.295308  0.046169  0.954286
			-0.915015  0.016431  0.403084
			-0.971209 -0.007035  0.238123
			-0.376682  0.100450  0.920880
			-0.578388  0.041067  0.814727
			-0.247499  0.054959  0.967328
			-0.840677  0.031983  0.540591
			-0.695063  0.010774  0.718869
			-0.794246  0.042106  0.606135
			-0.595632  0.038096  0.802354
			-0.485610  0.052873  0.872575
			 0.800162  0.518670 -0.301202
			-0.332555  0.893875 -0.300658
			 0.078688  0.989833 -0.118484
			-0.224610  0.909429 -0.349986
			-0.036911  0.927991 -0.370770
			 0.156636  0.897986 -0.411202
			 0.333984  0.884669 -0.325292
			 0.178498  0.840442 -0.511660
			 0.349963  0.815665 -0.460669
			 0.444707  0.865214 -0.231602
			 0.389970  0.675087 -0.626244
			 0.404383  0.781551 -0.475030
			 0.394510  0.737545 -0.548078
			 0.348369  0.905583 -0.241989
			 0.458360  0.880123 -0.123648
			-0.560409  0.635867 -0.530674
			-0.684606  0.512289 -0.518530
			-0.776251  0.569359 -0.270675
			-0.801612  0.584292 -0.126574
			-0.859765  0.506321 -0.066657
			-0.806196  0.589520  0.050142
			-0.826053  0.550484  0.120845
			-0.799771  0.553898  0.231438
			-0.862828  0.417324  0.285253
			-0.909962  0.410589  0.058190
			-0.814859  0.446417 -0.369752
			-0.845810  0.513109  0.146031
			-0.274785  0.756727 -0.593175
			-0.131376  0.792897 -0.595025
			 0.008377  0.954204  0.299040
			 0.006637  0.973831 -0.227179
			 0.700949  0.540535  0.465287
			 0.343148  0.724746  0.597488
			-0.692503  0.721413  0.001989
			-0.693837  0.616007  0.372995
			-0.021883  0.696553  0.717172
			 0.043116  0.998412 -0.036269
			 0.173379  0.982358 -0.070088
			 0.196344  0.928555 -0.315016
			 0.409882  0.850912 -0.328550
			 0.311167  0.797557 -0.516796
			 0.507877  0.705121 -0.494838
			 0.365153  0.861719 -0.352283
			 0.447462  0.721656 -0.528196
			 0.505395  0.712014 -0.487455
			 0.334985  0.792030  0.510367
			 0.259339  0.959347  0.111338
			 0.348803  0.894851  0.278529
			 0.315446  0.897594  0.307926
			 0.448973  0.754843  0.478158
			 0.441529  0.650089  0.618414
			 0.510492  0.546726  0.663693
			 0.492312  0.584314  0.645140
			 0.540464  0.377274  0.752039
			 0.493447  0.330077  0.804711
			 0.494465  0.133332  0.858910
			 0.360766  0.165641  0.917830
			 0.229411 -0.075612  0.970388
			 0.369541 -0.048079  0.927970
			-0.074406 -0.163836  0.983678
			-0.104927 -0.149935  0.983112
			-0.089647 -0.190901  0.977507
			-0.047647 -0.154152  0.986898
			 0.612989  0.147211  0.776256
			 0.592026  0.075761  0.802350
			 0.581106  0.073275  0.810523
			-0.433863  0.612334 -0.660916
			-0.252118  0.746438 -0.615846
			-0.438283  0.606673 -0.663216
			-0.477694  0.649945 -0.591084
			-0.474942  0.689880 -0.546347
			-0.554359  0.492034 -0.671259
			-0.479277  0.287303 -0.829307
			-0.454704  0.327369 -0.828296
			-0.644212  0.239008 -0.726544
			-0.515907  0.189506 -0.835420
			-0.601457  0.163869 -0.781918
			-0.399982  0.283278 -0.871647
			-0.719802 -0.065477 -0.691084
			-0.716055 -0.265269 -0.645676
			-0.607320 -0.067956 -0.791545
			-0.670241 -0.396951 -0.627062
			-0.710709 -0.425423 -0.560275
			-0.740529 -0.375654 -0.557226
			-0.218312 -0.170362  0.960894
			-0.226599 -0.239005  0.944209
			-0.184565 -0.040643  0.981980
			-0.040361 -0.291938  0.955585
			-0.107265 -0.240476  0.964710
			-0.189249  0.045115  0.980892
			 0.009857  0.031897  0.999443
			 0.266542 -0.011665  0.963753
			-0.201874 -0.038709  0.978646
			-0.179911  0.205793  0.961915
			-0.200261 -0.239909  0.949916
			-0.073991 -0.294780  0.952696
			 0.057348 -0.370466  0.927074
			 0.750646 -0.246302  0.613079
			 0.672417 -0.550943  0.494285
			 0.800546 -0.104526  0.590085
			-0.727399 -0.271146 -0.630373
			-0.905876 -0.244389 -0.345923
			-0.811782 -0.205072 -0.546767
			-0.933906 -0.130593 -0.332813
			-0.994833 -0.088546 -0.049678
			-0.929113 -0.114647 -0.351574
			-0.975609 -0.094316  0.198219
			-0.983372 -0.099532  0.151898
			-0.997692 -0.065918 -0.016315
			-0.998253 -0.018134  0.056225
			-0.993420  0.005066  0.114412
			-0.942134  0.022459  0.334483
			-0.146109  0.148562  0.978050
			-0.057687  0.117438  0.991403
			-0.224074  0.104164  0.968989
			-0.112915  0.061927  0.991673
			 0.000297  0.057180  0.998364
			-0.731185  0.021286  0.681848
			-0.690458  0.047905  0.721785
			-0.918375  0.023444  0.395017
			-0.850864  0.016451  0.525128
			-0.205199  0.108394  0.972699
			-0.241071  0.061623  0.968549
			-0.462704  0.674280 -0.575545
			-0.332452  0.718028 -0.611483
			-0.063035  0.846972 -0.527888
			-0.069613  0.720489 -0.689963
			 0.210801  0.748784 -0.628399
			 0.046092  0.654894 -0.754314
			 0.242038  0.630291 -0.737666
			 0.462470  0.758580 -0.458996
			 0.501951  0.814290 -0.291508
			 0.316840  0.592131 -0.740941
			 0.249128  0.450110 -0.857518
			 0.340799  0.562475 -0.753311
			 0.433884  0.857065 -0.277821
			 0.526824  0.838330 -0.140211
			 0.560661  0.806920 -0.185851
			-0.642682  0.461096 -0.611842
			-0.585321  0.436447 -0.683311
			-0.501080  0.515407 -0.695179
			-0.620696  0.511065 -0.594600
			-0.783944  0.611602 -0.106654
			-0.711707  0.576644 -0.401192
			-0.776964  0.558673 -0.290192
			-0.813419  0.517287 -0.266015
			-0.840801  0.540478 -0.030619
			-0.879147  0.473055  0.057613
			-0.792711  0.455391  0.405251
			-0.872797  0.479014  0.093655
			-0.629066  0.467070  0.621387
			-0.571621  0.820141  0.024852
			-0.267313  0.867424 -0.419665
			-0.454963  0.868022 -0.198864
			 0.336792  0.929857  0.148108
			 0.338160  0.935672 -0.100822
			 0.487496  0.863174  0.131448
			 0.390745  0.900702 -0.189877
			 0.460431  0.788450 -0.407861
			 0.637355  0.752907 -0.164044
			 0.670007  0.742298  0.009150
			 0.506207  0.687444 -0.520745
			 0.737093  0.483523 -0.472122
			 0.519959  0.666854 -0.533806
			 0.683546  0.556098 -0.472780
			 0.657797  0.559862 -0.503842
			 0.647188  0.564969 -0.511819
			 0.532097  0.737408 -0.416056
			 0.538319  0.542379 -0.645010
			 0.593286  0.439756 -0.674259
			 0.458212  0.623839 -0.633140
			 0.493915  0.523188 -0.694494
			 0.622903  0.542501 -0.563635
			 0.563327  0.423038 -0.709719
			 0.523810  0.556760  0.644703
			 0.500092  0.800610  0.330047
			 0.575214  0.731135  0.366839
			 0.553991  0.698661  0.452733
			 0.630615  0.499298  0.594160
			 0.633469  0.386411  0.670376
			 0.692168  0.324570  0.644638
			 0.675281  0.226685  0.701861
			 0.475243 -0.037150  0.879070
			-0.014621 -0.234468  0.972014
			 0.386256 -0.142947  0.911248
			 0.166166 -0.220621  0.961101
			-0.072793 -0.318902  0.944988
			 0.728440  0.137397  0.671191
			 0.657392  0.059189  0.751221
			 0.689081  0.058781  0.722297
			 0.717923  0.069471  0.692647
			 0.569992  0.062461  0.819273
			-0.441663  0.800062 -0.405998
			-0.629923  0.623470 -0.463122
			-0.424720  0.679116 -0.598676
			-0.299127  0.699225 -0.649313
			-0.445996  0.571975 -0.688428
			-0.329941  0.208183 -0.920760
			-0.223910  0.183823 -0.957117
			-0.295452  0.543325 -0.785816
			-0.312139  0.306751 -0.899151
			-0.352651  0.142854 -0.924786
			-0.390062 -0.074832 -0.917743
			-0.538183 -0.048686 -0.841421
			-0.596073 -0.292979 -0.747570
			-0.574588 -0.433530 -0.694191
			-0.444257 -0.253076 -0.859411
			-0.445587 -0.352286 -0.823011
			-0.605728 -0.400261 -0.687666
			-0.213512 -0.134547  0.967631
			-0.136476 -0.050209  0.989370
			 0.029817 -0.309736  0.950355
			 0.093579 -0.327907  0.940064
			 0.103396 -0.272814  0.956495
			 0.142627 -0.202377  0.968866
			 0.009056 -0.148145  0.988924
			 0.013069  0.049017  0.998712
			 0.329515  0.358638  0.873384
			-0.282553  0.197379  0.938725
			 0.092367 -0.060483  0.993886
			-0.014416  0.025455  0.999572
			 0.039836 -0.112581  0.992844
			-0.245220  0.478887  0.842932
			-0.073853 -0.229604  0.970478
			 0.042098 -0.314000  0.948489
			 0.123055 -0.265771  0.956150
			 0.171676 -0.268571  0.947838
			 0.017750 -0.682312  0.730846
			 0.154416 -0.970380  0.185790
			 0.371345 -0.871024  0.321590
			 0.714326 -0.123796  0.688777
			-0.516356 -0.292412 -0.804905
			-0.619638 -0.222809 -0.752599
			-0.497501 -0.268038 -0.825014
			-0.846191 -0.130505 -0.516652
			-0.691472 -0.156951 -0.705147
			-0.961411 -0.084105 -0.261945
			-0.866190 -0.088321 -0.491848
			-0.862261 -0.162653 -0.479635
			-0.965666 -0.048231 -0.255270
			-0.995923 -0.028524 -0.085575
			-0.993605  0.010153  0.112458
			-0.975475 -0.034780 -0.217344
			 0.043734  0.106775  0.993321
			-0.011967  0.059019  0.998185
			 0.022432  0.111566  0.993504
			 0.041183  0.063528  0.997130
			-0.089398  0.063081  0.993996
			-0.428247  0.058770  0.901749
			-0.646186  0.067015  0.760232
			-0.714251  0.002580  0.699885
			-0.985857  0.003428  0.167554
			-0.886765 -0.011257  0.462084
			-0.066869  0.090418  0.993656
			-0.083341  0.073108  0.993836
			-0.589503  0.462565 -0.662208
			-0.310179  0.514766 -0.799253
			-0.098518  0.541553 -0.834874
			 0.056689  0.518547 -0.853168
			 0.104479  0.374973 -0.921130
			 0.478167  0.582801 -0.657038
			 0.534913  0.686162 -0.493000
			 0.111201  0.272621 -0.955674
			 0.306173  0.428173 -0.850250
			 0.570886  0.764904 -0.298346
			 0.578074  0.649034 -0.494555
			-0.383367  0.421043 -0.822042
			-0.343661  0.612653 -0.711725
			-0.648000  0.521938 -0.554686
			-0.831315  0.501764 -0.239056
			-0.900604  0.434476 -0.011921
			-0.818564  0.543395 -0.186212
			-0.587440  0.719414 -0.370619
			 0.547768  0.836588 -0.008364
			 0.644159  0.748113  0.159327
			 0.710452  0.588894  0.385308
			 0.622916  0.690845 -0.367026
			 0.709811  0.693722 -0.122138
			 0.789485  0.603188  0.113480
			 0.832868  0.468503  0.294679
			 0.728992  0.651604  0.209722
			 0.762356  0.531790 -0.368799
			 0.901231  0.256781 -0.349065
			 0.848310  0.327623 -0.415973
			 0.850896  0.354179 -0.387987
			 0.657311  0.525627 -0.540055
			 0.660419  0.440438 -0.608163
			 0.784698  0.373304 -0.494867
			 0.745873  0.385821 -0.542969
			 0.745359  0.370786 -0.554037
			 0.601156  0.532358 -0.595992
			 0.616355  0.310185 -0.723804
			 0.528800  0.466943 -0.708755
			 0.591811  0.235305 -0.770968
			 0.579493  0.180895 -0.794648
			 0.605078  0.270545 -0.748789
			 0.551266  0.346387 -0.759027
			 0.684916  0.516456  0.513969
			 0.766624  0.368024  0.526161
			 0.717738  0.221261  0.660224
			 0.817172  0.147272  0.557261
			 0.142421 -0.205138  0.968315
			 0.369685 -0.119592  0.921428
			-0.363959 -0.705798  0.607769
			-0.127605 -0.285140  0.949954
			-0.219665 -0.314293  0.923562
			 0.773311  0.104141  0.625416
			 0.697908  0.105723  0.708341
			 0.666293  0.153288  0.729764
			 0.705747  0.053883  0.706412
			 0.642374 -0.019793  0.766136
			 0.579878 -0.130975  0.804106
			-0.134625  0.589049 -0.796805
			-0.100363  0.113473 -0.988459
			-0.227117  0.170491 -0.958828
			-0.047186  0.074004 -0.996141
			-0.020837 -0.131057 -0.991156
			-0.215848 -0.057371 -0.974740
			-0.227084  0.516022 -0.825926
			-0.215975  0.331711 -0.918326
			-0.157474 -0.380588 -0.911238
			-0.404769 -0.470778 -0.783920
			-0.453587 -0.392813 -0.799973
			-0.342242 -0.429285 -0.835814
			-0.231990 -0.516008 -0.824570
			 0.022142  0.025242  0.999436
			 0.042219 -0.091068  0.994949
			 0.286929 -0.288288  0.913544
			 0.228051 -0.308237  0.923571
			 0.181403 -0.268473  0.946053
			 0.402200 -0.270804  0.874586
			 0.188076 -0.209896  0.959464
			 0.181526 -0.143393  0.972876
			 0.203970 -0.081422  0.975585
			-0.033205  0.107282  0.993674
			 0.049883  0.337375  0.940048
			-0.195128  0.704739  0.682105
			-0.465433  0.529035  0.709573
			-0.267098  0.127896  0.955145
			-0.048308 -0.075270  0.995992
			 0.122558 -0.227929  0.965934
			 0.198974 -0.333465  0.921526
			 0.380900 -0.218329  0.898470
			 0.233424 -0.287118  0.929019
			-0.601680 -0.787346  0.134413
			-0.414891 -0.772251  0.481137
			 0.163504 -0.285173  0.944427
			-0.309670 -0.301893 -0.901646
			-0.479145 -0.211681 -0.851828
			-0.390262 -0.301895 -0.869802
			-0.715895 -0.108804 -0.689678
			-0.669463 -0.127179 -0.731878
			-0.499629 -0.122745 -0.857499
			-0.851383 -0.067996 -0.520119
			-0.934190 -0.065521 -0.350708
			-0.994708  0.002220 -0.102719
			-0.999585  0.016962 -0.023282
			-0.889189 -0.076622 -0.451080
			-0.917074 -0.014167 -0.398465
			-0.951615 -0.009264 -0.307154
			 0.048144  0.099027  0.993919
			 0.030295  0.130571  0.990976
			 0.137923  0.099338  0.985449
			 0.090566  0.026207  0.995546
			 0.081784  0.082909  0.993196
			-0.313000  0.102906  0.944162
			-0.559401  0.037436  0.828051
			-0.358236  0.088520  0.929425
			-0.517011  0.042505  0.854923
			-0.808292 -0.027866  0.588123
			-0.736277 -0.014586  0.676524
			-0.967076 -0.024064  0.253347
			-0.997420 -0.013767 -0.070448
			-0.927924 -0.016726  0.372394
			-0.865054 -0.032281  0.500640
			-0.044476  0.129009  0.990645
			-0.053754  0.132841  0.989679
			-0.489330  0.382503 -0.783740
			-0.175840  0.461252 -0.869671
			-0.215448  0.319061 -0.922921
			-0.296268  0.316221 -0.901238
			-0.080875  0.324527 -0.942412
			 0.346731  0.250111 -0.904003
			 0.506573  0.491563 -0.708343
			 0.204771  0.280163 -0.937858