<?xml version="1.0"?>
<VTKFile type="PolyData" version="0.1" byte_order="LittleEndian" compressor="vtkZLibDataCompressor">
	<PolyData>
		<Piece NumberOfPoints="806" NumberOfVerts="0" NumberOfLines="0" NumberOfStrips="0" NumberOfPolys="1608">
		<PointData Normals="Normals">
		<DataArray type="Float32" Name="Normals" NumberOfComponents="3" format="ascii">
			-0.920403 -0.148406 -0.361710
			-0.883576 -0.135121 -0.448370
			-0.950559 -0.095010 -0.295654
			-0.995326 -0.093321 -0.024843
			 0.797591 -0.160626 -0.581419
			 0.221340 -0.391346 -0.893228
			-0.961861 -0.119317 -0.246145
			-0.772251 -0.173877 -0.611060
			-0.998680 -0.036850  0.035773
			-0.997571 -0.058716  0.037492
			-0.993701 -0.027046 -0.108751
			-0.838537 -0.129231 -0.529297
			-0.890772 -0.029288 -0.453506
			-0.992508 -0.074695  0.096685
			-0.899683 -0.149644 -0.410093
			-0.985898 -0.125154  0.111092
			-0.990207 -0.117941 -0.074697
			-0.997610 -0.055290  0.041439
			 0.793309 -0.213916 -0.570000
			-0.725974 -0.171277 -0.666053
			-0.703290 -0.116371 -0.701314
			-0.711557 -0.115582 -0.693057
			-0.823723 -0.165755 -0.542223
			-0.972147 -0.071168  0.223306
			-0.976706 -0.057418  0.206757
			-0.999161 -0.036743 -0.018090
			-0.950637 -0.011405 -0.310095
			-0.800832 -0.044458 -0.597236
			-0.780515 -0.000818 -0.625136
			-0.989842 -0.105641  0.095141
			-0.992026 -0.077625  0.099294
			-0.974265 -0.104609  0.199661
			-0.504222 -0.125895 -0.854348
			-0.722291 -0.107409 -0.683197
			-0.926886 -0.102281 -0.361140
			-0.858597 -0.408252  0.310068
			 0.998639 -0.049884  0.015227
			-0.995169  0.076413 -0.061643
			 0.979167 -0.177056  0.099413
			-0.999944 -0.008737  0.005973
			-0.972831  0.220330 -0.071100
			-0.487790 -0.158625 -0.858428
			-0.655242 -0.157801 -0.738754
			-0.667330 -0.041840 -0.743586
			-0.031386 -0.119180 -0.992376
			-0.405013 -0.078773 -0.910911
			-0.918494 -0.098744  0.382907
			-0.925834 -0.128646  0.355362
			-0.942611 -0.059025  0.328635
			-0.853559 -0.111063  0.509021
			-0.972496 -0.067522  0.222917
			-0.923409 -0.082714  0.374798
			-0.998389 -0.055086  0.013609
			-0.912432 -0.081838  0.400961
			-0.951500 -0.101621 -0.290380
			-0.777404 -0.071487 -0.624926
			-0.997253 -0.055209 -0.049384
			-0.531915 -0.085564 -0.842464
			-0.960718 -0.139170  0.240109
			-0.976642 -0.101247  0.189522
			-0.994069 -0.043848  0.099524
			-0.973565  0.041868  0.224541
			-0.919543 -0.158009  0.359824
			-0.392922 -0.063837 -0.917354
			-0.206653 -0.104414 -0.972827
			 0.943502 -0.053385 -0.327037
			 0.749451 -0.136477 -0.647841
			-0.585865  0.014026 -0.810287
			-0.890467  0.086834 -0.446685
			-0.994106 -0.039797  0.100843
			-0.946415  0.295528 -0.130239
			-0.987471  0.138090  0.076369
			-0.831213  0.445454 -0.332651
			-0.812961  0.541761 -0.213517
			-0.919591  0.389199 -0.053635
			-0.367876 -0.105656 -0.923853
			-0.386919 -0.108535 -0.915704
			-0.157814 -0.048568 -0.986274
			-0.122120 -0.097901 -0.987675
			-0.111762 -0.071810 -0.991137
			-0.863347 -0.144649  0.483435
			-0.703342 -0.164365  0.691588
			-0.786698 -0.164340  0.595062
			-0.670443 -0.109661  0.733812
			-0.832248 -0.078604  0.548804
			-0.867738 -0.094892  0.487880
			-0.982375 -0.044409  0.181568
			-0.993395 -0.063273  0.095718
			-0.919308 -0.071729  0.386948
			-0.823446 -0.082665 -0.561340
			-0.977666 -0.081511 -0.193712
			-0.559249 -0.065654 -0.826396
			-0.351699 -0.128852 -0.927203
			-0.103239 -0.145903 -0.983897
			-0.884812 -0.183011  0.428503
			-0.932415 -0.152241  0.327756
			-0.867597 -0.110681  0.484795
			-0.843513  0.123235  0.522781
			-0.899077  0.415607  0.137588
			-0.945516  0.221756  0.238376
			-0.154791 -0.088134 -0.984008
			-0.156870 -0.060290 -0.985777
			-0.325020  0.004422 -0.945697
			-0.159051 -0.077204 -0.984247
			-0.369581  0.143068 -0.918118
			-0.641700  0.232685 -0.730807
			-0.838649  0.246717 -0.485591
			-0.897167  0.414470  0.152663
			-0.701215  0.638477 -0.317246
			-0.610835  0.416556 -0.673321
			-0.764383  0.640373 -0.075111
			-0.531225  0.778669 -0.333878
			-0.560834  0.819865 -0.115267
			-0.703302  0.699652  0.125911
			-0.611481  0.779610  0.135274
			 0.155716 -0.114281 -0.981169
			-0.078133 -0.016358 -0.996809
			-0.012456  0.010142 -0.999871
			 0.328641 -0.112198 -0.937767
			 0.462441 -0.180056 -0.868175
			 0.322047 -0.120482 -0.939026
			 0.119231 -0.062781 -0.990880
			 0.169087 -0.073805 -0.982834
			-0.654596 -0.232611  0.719302
			-0.613655 -0.157289  0.773749
			-0.526079 -0.192918  0.828265
			-0.789441 -0.206282  0.578127
			-0.790614 -0.086801  0.606132
			-0.672475 -0.109365  0.731995
			-0.523319 -0.099984  0.846251
			-0.400471 -0.136790  0.906042
			-0.498187 -0.169769  0.850287
			-0.825386 -0.153311  0.543354
			-0.743940 -0.108012  0.659459
			-0.977993 -0.028580  0.206673
			-0.999520 -0.016067 -0.026497
			-0.922559 -0.052618  0.382253
			-0.557406  0.122818 -0.821106
			-0.917795  0.024360 -0.396307
			-0.217564 -0.012949 -0.975960
			 0.057155 -0.134807 -0.989222
			 0.342131 -0.165048 -0.925043
			-0.820405 -0.225670  0.525366
			-0.826187 -0.120417  0.550378
			-0.728501  0.157398  0.666717
			-0.757656  0.396982  0.518038
			-0.853627  0.401954  0.331291
			-0.709560  0.679172  0.187750
			-0.470244  0.879220  0.076437
			-0.748350  0.574147  0.332157
			 0.240259 -0.053210 -0.969249
			 0.155983 -0.097689 -0.982917
			 0.123099 -0.111573 -0.986102
			-0.064857  0.058644 -0.996170
			 0.060400 -0.051414 -0.996849
			-0.133879  0.300836 -0.944232
			-0.329214  0.383070 -0.863062
			-0.642066  0.623403 -0.446229
			-0.483733  0.579098 -0.656238
			-0.449752  0.888858  0.087494
			-0.268128  0.963382  0.001371
			-0.228263  0.711796 -0.664261
			-0.238094  0.959420  0.151078
			-0.209849  0.960428  0.183144
			 0.583390 -0.171024 -0.793981
			 0.565988 -0.155296 -0.809655
			 0.631906 -0.126059 -0.764725
			 0.656069 -0.146371 -0.740370
			 0.656180 -0.137174 -0.742031
			 0.444515 -0.061382 -0.893666
			-0.505169 -0.274853  0.818084
			-0.618834 -0.240942  0.747657
			-0.754365 -0.243919  0.609456
			-0.464665 -0.240411  0.852226
			-0.451997 -0.277327  0.847814
			-0.305609 -0.217965  0.926874
			-0.325511 -0.154945  0.932756
			-0.554684 -0.133168  0.821335
			-0.474250 -0.130877  0.870608
			-0.448037 -0.123680  0.885419
			-0.326098 -0.118389  0.937893
			-0.325328 -0.125298  0.937263
			-0.149549 -0.164699  0.974941
			-0.718225 -0.176592  0.673029
			-0.632421 -0.189954  0.750974
			-0.644888 -0.133342  0.752555
			-0.554681 -0.131611  0.821588
			-0.992181  0.118962 -0.037738
			-0.896662  0.111493  0.428448
			-0.443908  0.287344 -0.848751
			-0.806237  0.174413 -0.565298
			-0.051462  0.253796 -0.965888
			 0.041460  0.101342 -0.993987
			 0.401811 -0.142276 -0.904602
			 0.345725  0.041551 -0.937416
			 0.354485 -0.213864 -0.910276
			 0.567703 -0.156096 -0.808299
			-0.784863 -0.253343  0.565515
			-0.682786 -0.247798  0.687314
			-0.699033 -0.201685  0.686058
			-0.694642 -0.095523  0.712985
			-0.538262  0.041536  0.841753
			-0.513865  0.273615  0.813067
			-0.616158  0.513173  0.597498
			-0.585597  0.667633  0.459719
			-0.361557  0.925503  0.112786
			-0.586149  0.740228  0.329383
			 0.068519  0.995591  0.064053
			 0.085210  0.977352 -0.193709
			 0.430965 -0.099238 -0.896895
			 0.580139 -0.079046 -0.810673
			 0.305349 -0.069317 -0.949714
			 0.234590 -0.002802 -0.972090
			 0.232639  0.204748 -0.950767
			 0.025553  0.472756 -0.880823
			-0.026882  0.970106  0.241187
			-0.077759  0.942758  0.324286
			-0.216418  0.908396  0.357744
			-0.142572  0.929142 -0.341128
			-0.196477  0.980327  0.018843
			-0.281570  0.911470  0.299900
			-0.163338  0.831943 -0.530275
			 0.048837  0.684319 -0.727545
			 0.699453 -0.113481 -0.705611
			 0.575640 -0.070150 -0.814689
			 0.643165 -0.139182 -0.752973
			 0.587442 -0.105862 -0.802312
			 0.629034 -0.145819 -0.763579
			 0.656184 -0.128044 -0.743658
			-0.476839 -0.164083  0.863540
			-0.342317 -0.243950  0.907363
			-0.292062 -0.270315  0.917404
			-0.162116 -0.237003  0.957887
			-0.349583 -0.140236  0.926350
			-0.300031 -0.129019  0.945164
			-0.180988 -0.137113  0.973881
			-0.000486 -0.188763  0.982023
			 0.091444 -0.245974  0.964953
			-0.054345 -0.221374  0.973674
			-0.762315 -0.108618  0.638027
			 0.961584 -0.082854  0.261710
			 0.383302 -0.184083  0.905093
			 0.746905 -0.209387  0.631103
			-0.675495 -0.215917  0.705043
			-0.601218 -0.162704  0.782345
			-0.429359 -0.127341  0.894112
			-0.786193  0.262832 -0.559303
			-0.945200  0.269789 -0.183876
			-0.966934  0.226485  0.117234
			-0.962317  0.229022  0.146611
			-0.805407  0.141728  0.575529
			-0.755313  0.022191  0.654989
			-0.216419  0.347692 -0.912290
			-0.067660  0.357573 -0.931431
			 0.283692  0.267283 -0.920912
			 0.282139  0.168358 -0.944485
			 0.515471 -0.006626 -0.856881
			 0.503086  0.056636 -0.862379
			 0.432010  0.105248 -0.895707
			-0.406092  0.153654  0.900822
			-0.275047  0.067584  0.959052
			-0.496856  0.531537  0.686004
			-0.294696  0.282632  0.912838
			-0.308499  0.499045  0.809804
			-0.396684  0.697580  0.596678
			-0.476199  0.700733  0.531232
			-0.396352  0.839758  0.371095
			 0.160510  0.987034 -0.000584
			 0.099324  0.994096  0.043670
			-0.014433  0.983181  0.182064
			-0.066556  0.929259  0.363384
			 0.307460  0.912994 -0.268162
			 0.615718 -0.086075 -0.783251
			 0.567602 -0.077278 -0.819668
			 0.516296 -0.080255 -0.852641
			 0.446143 -0.057952 -0.893083
			 0.457682 -0.005299 -0.889100
			 0.495566  0.227420 -0.838269
			 0.334036  0.404585 -0.851312
			-0.299825  0.864276  0.403895
			 0.024119  0.892018 -0.451356
			-0.192166  0.973760  0.121917
			 0.302897  0.631611 -0.713667
			 0.541524 -0.007703 -0.840650
			 0.544213 -0.091858 -0.833903
			 0.667793 -0.032861 -0.743621
			 0.722526 -0.083367 -0.686299
			 0.630843 -0.198965 -0.749966
			 0.601801 -0.113125 -0.790593
			 0.545610 -0.160285 -0.822569
			 0.564884 -0.205271 -0.799230
			 0.701864 -0.120134 -0.702107
			 0.564270 -0.175514 -0.806718
			-0.180454 -0.163231  0.969944
			-0.125409 -0.259993  0.957432
			-0.096083 -0.117387  0.988427
			-0.131783 -0.058630  0.989543
			 0.055699 -0.156899  0.986043
			 0.382130 -0.283692  0.879486
			 0.335318 -0.298396  0.893600
			 0.010952 -0.236318  0.971614
			 0.498009 -0.305979  0.811396
			-0.028741 -0.211474  0.976961
			-0.717764 -0.049326  0.694537
			-0.695611 -0.126339  0.707223
			-0.548644 -0.199434  0.811921
			-0.621663 -0.072557  0.779917
			-0.384520 -0.076970  0.919902
			-0.909025  0.153308 -0.387519
			-0.691728  0.198217 -0.694422
			-0.960891  0.210312 -0.180160
			-0.962745  0.069620  0.261295
			-0.993920  0.090297 -0.062999
			-0.687859 -0.012458  0.725738
			-0.789511 -0.033375  0.612828
			-0.889337  0.040893  0.455420
			-0.375933  0.206149 -0.903425
			 0.070731  0.286818 -0.955371
			 0.375137  0.296929 -0.878126
			 0.332356  0.290369 -0.897343
			 0.556954  0.110747 -0.823127
			 0.472348  0.194523 -0.859679
			 0.600005  0.027715 -0.799516
			 0.646074  0.022217 -0.762951
			-0.173290  0.316767  0.932539
			-0.056302 -0.002567  0.998410
			-0.148553  0.132966  0.979925
			-0.283960  0.410998  0.866283
			-0.362570  0.392465  0.845289
			-0.352900  0.521020  0.777174
			-0.111576  0.766750  0.632175
			-0.087983  0.864587  0.494720
			 0.383348  0.913364 -0.137152
			 0.525023  0.849779 -0.047185
			 0.530106  0.843539  0.086195
			-0.278683  0.897034  0.343023
			-0.292597  0.905447  0.307493
			-0.066049  0.882861  0.464967
			 0.284049  0.941488  0.181428
			 0.565228 -0.081945 -0.820855
			 0.547874  0.004043 -0.836551
			 0.469944  0.446673 -0.761338
			 0.431265  0.538759 -0.723706
			-0.432409  0.803239  0.409671
			 0.273840  0.783028 -0.558461
			 0.173326  0.936913 -0.303564
			-0.282048  0.880281  0.381516
			 0.177211  0.976020  0.126413
			 0.376044  0.730479 -0.570080
			 0.786277 -0.042644 -0.616401
			 0.707646 -0.000010 -0.706567
			 0.518466 -0.202907 -0.830676
			 0.588899 -0.226184 -0.775912
			 0.564974 -0.161653 -0.809118
			 0.712713 -0.112430 -0.692387
			 0.482156 -0.185788 -0.856159
			 0.395035 -0.149776 -0.906374
			-0.012338 -0.203340  0.979031
			-0.078134 -0.279308  0.957017
			 0.045616 -0.194557  0.979830
			 0.013908 -0.124310  0.992146
			 0.054407 -0.132248  0.989722
			-0.417799 -0.000183  0.908539
			-0.225339  0.088095  0.970290
			 0.094269 -0.105669  0.989923
			 0.111534 -0.092704  0.989427
			 0.071004  0.086837  0.993689
			 0.647881 -0.022117  0.761420
			 0.439238 -0.234053  0.867346
			 0.364712 -0.114703  0.924028
			 0.734447 -0.294920  0.611236
			 0.642777 -0.299405  0.705120
			 0.672746 -0.317306  0.668379
			 0.175909 -0.226924  0.957894
			 0.730478 -0.319371  0.603658
			 0.424086 -0.244752  0.871922
			 0.784619 -0.284071  0.551069
			-0.716661 -0.055730  0.695191
			-0.605493  0.030799  0.795254
			-0.867891  0.038192 -0.495285
			-0.936679  0.042668 -0.347581
			-0.975150  0.003722 -0.221513
			-0.699316  0.047308 -0.713245
			-0.997485 -0.070850 -0.002132
			-0.967902 -0.090761  0.234367
			-0.753945 -0.155245  0.638331
			-0.685742 -0.256022  0.681330
			-0.914654 -0.193973  0.354658
			-0.922351 -0.081923  0.377568
			 0.087568  0.188820 -0.978100
			-0.207541  0.145121 -0.967402
			-0.379463  0.044921 -0.924116
			 0.392823  0.214191 -0.894322
			 0.491022  0.217233 -0.843627
			 0.570221  0.250854 -0.782253
			 0.563373  0.193471 -0.803231
			 0.657844  0.124174 -0.742847
			 0.798964  0.036125 -0.600293
			-0.072081  0.307169  0.948921
			-0.023701  0.613828  0.789084
			 0.116692 -0.026522  0.992814
			 0.078886  0.244316  0.966481
			-0.200868  0.627641  0.752143
			 0.209261  0.775897  0.595142
			 0.530338  0.847786 -0.000632
			 0.439001  0.895797  0.069472
			 0.581346  0.812336  0.046334
			 0.465128  0.854585  0.230957
			 0.595129  0.803494  0.014798
			 0.604962  0.796239  0.004957
			 0.196976  0.838434  0.508163
			 0.064950  0.768745  0.636248
			-0.064351  0.767364  0.637974
			 0.483712  0.866202  0.125365
			 0.279110  0.853459  0.440119
			 0.328433  0.909167  0.256020
			 0.615706  0.082901 -0.783603
			 0.640500 -0.047568 -0.766484
			 0.503025  0.191656 -0.842754
			 0.603745  0.352444 -0.715035
			 0.552044  0.638601 -0.536130
			 0.302607  0.865632 -0.398886
			 0.359873  0.917011 -0.171993
			-0.084314  0.877842  0.471471
			 0.423306  0.849792  0.314112
			 0.499797  0.865550  0.032022
			 0.216014  0.833463  0.508603
			 0.477206  0.802079 -0.359089
			 0.902337 -0.067972 -0.425637
			 0.578857 -0.129218 -0.805126
			 0.637127 -0.127149 -0.760199
			 0.648203 -0.128634 -0.750524
			 0.651745 -0.083721 -0.753803
			 0.673372 -0.182448 -0.716438
			 0.554366 -0.193200 -0.809538
			 0.644853 -0.266082 -0.716495
			 0.485996 -0.186350 -0.853862
			 0.782427 -0.202014 -0.589065
			 0.647322 -0.304397 -0.698796
			 0.186555 -0.129807  0.973831
			 0.252677 -0.121779  0.959857
			 0.297972 -0.059733  0.952704
			-0.419974  0.100652  0.901937
			-0.241319  0.187823  0.952096
			 0.065658  0.140294  0.987931
			 0.354923 -0.084778  0.931044
			 0.370262  0.043378  0.927914
			 0.281843  0.107762  0.953390
			 0.861188  0.003825  0.508272
			 0.767544 -0.026341  0.640455
			 0.779299 -0.164842  0.604582
			 0.742179 -0.222951  0.632031
			 0.273147 -0.045764  0.960883
			 0.723457 -0.035972  0.689432
			 0.944872 -0.021483  0.326734
			 0.931077 -0.305954  0.198716
			 0.863948 -0.285492  0.414836
			 0.924817 -0.276827  0.260921
			 0.879024 -0.330170  0.343953
			 0.755244 -0.300697  0.582398
			 0.933053 -0.166046  0.319126
			 0.774569 -0.391561  0.496711
			 0.792081 -0.314094  0.523405
			 0.983067 -0.105829  0.149599
			 0.952666 -0.178980  0.245751
			 0.610461 -0.192410  0.768320
			-0.674880 -0.247796  0.695079
			-0.731594 -0.064224  0.678709
			-0.463288  0.062024  0.884034
			-0.611958  0.004437  0.790878
			-0.891912 -0.041415 -0.450309
			-0.951550 -0.053625 -0.302783
			-0.981597 -0.143137 -0.126411
			-0.579766 -0.086001 -0.810231
			-0.981239 -0.177981  0.074109
			-0.674071 -0.331417  0.660144
			-0.824067 -0.313321  0.471957
			-0.591457 -0.531987  0.605944
			-0.705164 -0.420763  0.570703
			-0.528548 -0.390628  0.753689
			-0.923801 -0.293302  0.246100
			 0.085989  0.082922 -0.992839
			 0.346303  0.133195 -0.928619
			-0.162434 -0.146305 -0.975813
			-0.112034 -0.077059 -0.990712
			 0.633141  0.170932 -0.754927
			 0.483258  0.114545 -0.867952
			 0.597570  0.178444 -0.781708
			 0.695801  0.197108 -0.690659
			 0.594560  0.221013 -0.773080
			 0.803652  0.131572 -0.580372
			 0.873427  0.060975 -0.483122
			 0.877683  0.097306 -0.469259
			 0.938839 -0.036605 -0.342406
			 0.852332  0.027236 -0.522292
			 0.105557  0.577785  0.809334
			 0.346910  0.023568  0.937602
			 0.185673  0.267461  0.945511
			 0.267787  0.195320  0.943472
			 0.279752  0.672753  0.684940
			 0.455940  0.887894  0.061346
			 0.326224  0.935421  0.136256
			 0.174520  0.718554  0.673218
			 0.227426  0.834325  0.502175
			 0.164301  0.686192  0.708623
			 0.254924  0.964995  0.061630
			 0.072966  0.938909  0.336343
			 0.716857  0.209643 -0.664956
			 0.666296  0.503500 -0.550034
			 0.553637  0.824820 -0.114710
			 0.677696  0.675028 -0.291661
			 0.331926  0.919576  0.210251
			 0.083322  0.792706  0.603884
			 0.610171  0.777847 -0.150484
			 0.979947 -0.059475 -0.190178
			 0.809447 -0.130254 -0.572564
			 0.806419 -0.215804 -0.550561
			 0.746200 -0.101842 -0.657886
			 0.735831  0.015685 -0.676983
			 0.851673 -0.021823 -0.523620
			 0.814420 -0.071206 -0.575890
			 0.683055 -0.312738 -0.660023
			 0.746020 -0.333185 -0.576577
			 0.864670 -0.317345 -0.389407
			 0.898685 -0.348611 -0.266151
			 0.968379 -0.202550 -0.145658
			 0.845413 -0.298974 -0.442597
			 0.970688 -0.235327 -0.048839
			 0.375594  0.055089  0.925145
			 0.386589  0.089654  0.917884
			 0.428599  0.080546  0.899898
			-0.321885  0.119605  0.939194
			-0.064445  0.109396  0.991907
			 0.242217  0.018220  0.970051
			 0.205199  0.053259  0.977270
			 0.513056  0.079825  0.854635
			 0.241334  0.058870  0.968655
			 0.432621  0.016353  0.901427
			 0.227996 -0.002481  0.973659
			 0.983172 -0.163127  0.082233
			 0.530696  0.044442  0.846396
			 0.979892  0.076009  0.184483
			 0.962760  0.105307 -0.249006
			 0.990825 -0.041038 -0.128768
			 0.933865 -0.312536  0.173833
			 0.883926 -0.247435 -0.396801
			 0.961250 -0.257400  0.098713
			 0.950021 -0.289837  0.115995
			 0.855011 -0.303887  0.420248
			 0.926597 -0.203731  0.316089
			 0.978931 -0.204191  0.000807
			 0.617484 -0.006496  0.786557
			 0.909952 -0.072780  0.408278
			-0.664131 -0.241434  0.707559
			-0.700103 -0.358518  0.617511
			-0.752646 -0.308504  0.581678
			 0.955736 -0.127773  0.265034
			 0.754197 -0.325347  0.570383
			-0.657483 -0.102012  0.746532
			-0.371448 -0.030396  0.927956
			-0.148840  0.030707  0.988384
			-0.507498 -0.127371  0.852187
			-0.862374 -0.088458 -0.498484
			-0.907595 -0.221746 -0.356510
			-0.963687 -0.198044 -0.179125
			-0.943826 -0.329940 -0.018250
			-0.957701 -0.280429  0.064568
			 0.945985 -0.059983 -0.318613
			 0.745724 -0.179400 -0.641648
			-0.765341 -0.187925 -0.615579
			-0.599855 -0.549713  0.581369
			-0.808932 -0.491488  0.322596
			-0.625927 -0.653930  0.424959
			-0.440343 -0.772414  0.457685
			-0.434768 -0.699302  0.567410
			-0.727879 -0.440779  0.525268
			 0.362137 -0.463670  0.808620
			 0.389010  0.023427 -0.920936
			 0.218208 -0.097181 -0.971052
			-0.223515 -0.236831 -0.945491
			 0.124390 -0.262513 -0.956877
			 0.290261 -0.336712 -0.895753
			 0.576918 -0.056908 -0.814817
			 0.658130 -0.195745 -0.727014
			 0.705555  0.073021 -0.704883
			 0.685962 -0.068691 -0.724388
			 0.608346 -0.122501 -0.784161
			 0.546462  0.008047 -0.837445
			 0.653091  0.161668 -0.739821
			 0.715170  0.270455 -0.644505
			 0.842900  0.252628 -0.475078
			 0.887713  0.153618 -0.434012
			 0.704527  0.279523 -0.652311
			 0.856954  0.143729 -0.494947
			 0.829061  0.126224 -0.544725
			 0.904984  0.090214 -0.415770
			 0.860860  0.118304 -0.494899
			 0.836283 -0.015211 -0.548086
			 0.955305  0.068925 -0.287474
			 0.974952  0.061429 -0.213765
			 0.393776  0.443881  0.804929
			 0.305679  0.670299  0.676210
			 0.285811  0.909285  0.302512
			 0.098321  0.719960  0.687016
			-0.012234  0.836656  0.547592
			-0.019869  0.963629  0.266503
			 0.250278  0.855712  0.452898
			-0.108671  0.896905  0.428663
			 0.774478  0.175715 -0.607707
			 0.753065  0.436922 -0.491928
			 0.061383  0.911562  0.406555
			 0.608822  0.787931 -0.092196
			 0.318858  0.932430  0.170011
			 0.742689  0.463951 -0.482869
			 0.918407 -0.268508 -0.290573
			 0.877925 -0.148666 -0.455133
			 0.892015  0.133804 -0.431748
			 0.945590 -0.107885 -0.306953
			 0.954680  0.013764 -0.297316
			 0.962289 -0.222816 -0.156052
			 0.509311  0.293407  0.809021
			 0.504279  0.262381  0.822714
			 0.545047  0.217867  0.809604
			 0.438832  0.317874  0.840465
			 0.366265 -0.021834  0.930254
			 0.027861 -0.040322  0.998798
			 0.285511 -0.082364  0.954830
			 0.640921  0.094634  0.761751
			 0.445435 -0.035018  0.894629
			 0.880063  0.151923  0.449898
			 0.889854  0.140760  0.433989
			 0.924628  0.194893 -0.327231
			 0.990496  0.134159  0.030329
			 0.896657  0.114089 -0.427773
			 0.878872  0.197989 -0.434033
			 0.995584 -0.090699 -0.024229
			 0.794322  0.142918  0.590447
			 0.971104  0.049609  0.233443
			-0.546024 -0.413890  0.728391
			-0.447882 -0.264212  0.854163
			-0.618033 -0.415932  0.667110
			-0.627558 -0.561649  0.539186
			-0.236866 -0.135305  0.962074
			-0.589893 -0.361972 -0.721804
			-0.681586 -0.467745 -0.562722
			-0.816017 -0.444628 -0.369354
			-0.860519 -0.471203 -0.193586
			-0.732754 -0.680266 -0.017589
			-0.731382 -0.668348  0.135613
			-0.449580 -0.824267  0.344183
			-0.413120 -0.904793  0.103350
			-0.438595 -0.834885  0.332570
			-0.439737 -0.662506  0.606397
			-0.639836 -0.540996  0.545833
			-0.400338 -0.894601  0.198539
			-0.150349 -0.978050  0.144269
			-0.277053 -0.856975  0.434552
			 0.539654 -0.174224 -0.823662
			 0.435546 -0.181720 -0.881634
			 0.408695 -0.325530 -0.852642
			 0.061023 -0.420208 -0.905373
			-0.254409 -0.398847 -0.881020
			 0.389580 -0.579387 -0.715918
			-0.490833 -0.458545 -0.740824
			 0.530900 -0.313574 -0.787284
			 0.569374 -0.143187 -0.809513
			 0.471278 -0.508310 -0.720776
			 0.564598 -0.402902 -0.720346
			 0.656712 -0.400964 -0.638715
			 0.690295 -0.263043 -0.674018
			 0.631789 -0.388430 -0.670794
			 0.681059  0.014990 -0.732075
			 0.851608  0.253248 -0.458944
			 0.770107  0.257088 -0.583816
			 0.814283  0.330541 -0.477165
			 0.962868  0.116314 -0.243633
			 0.866685  0.195168 -0.459093
			 0.877050  0.324047 -0.354650
			 0.901680  0.132143 -0.411718
			 0.398309  0.631105  0.665625
			 0.019023  0.909512  0.415243
			 0.447794  0.529294  0.720645
			 0.505323  0.598184  0.621952
			 0.324838  0.826080  0.460513
			 0.803522  0.244544 -0.542726
			 0.209320  0.913010  0.350141
			 0.781832  0.612012 -0.119079
			 0.799798  0.417700 -0.431102
			 0.441855  0.869717  0.219902
			 0.852294  0.254458 -0.456996
			 0.914574  0.372490 -0.157495
			 0.961595  0.178729 -0.208308
			 0.987313 -0.033929 -0.155120
			 0.987362  0.145057 -0.063833
			 0.625196  0.441172  0.643814
			 0.263555 -0.104202  0.959000
			 0.094535 -0.163680  0.981974
			 0.236592 -0.156520  0.958919
			 0.650236  0.089603  0.754430
			 0.850664  0.200256  0.486075
			 0.391981 -0.153756  0.907034
			 0.514703 -0.083230  0.853319
			 0.966015  0.255317 -0.040346
			 0.915349  0.301557 -0.266831
			 0.989984  0.067635  0.123924
			 0.857260  0.231797  0.459756
			-0.308458 -0.376845  0.873408
			-0.535035 -0.550017  0.641263
			-0.369248 -0.593107  0.715458
			-0.170411 -0.243241  0.954879
			 0.220525 -0.777988  0.588306
			-0.612079 -0.651678 -0.447968
			-0.182662 -0.645028 -0.742006
			-0.548672 -0.808412 -0.213139
			-0.453269 -0.886243  0.095495
			-0.239855 -0.968725  0.063571
			-0.232105 -0.944025  0.234400
			-0.225513 -0.972321 -0.061117
			-0.326280 -0.747266  0.578908
			-0.402326 -0.803341  0.439064
			 0.946960 -0.244405  0.208646
			 0.748355 -0.468737  0.469307
			-0.226935 -0.972993 -0.042245
			 0.168921 -0.983838 -0.059409
			 0.170796 -0.957041 -0.234310
			 0.105967 -0.914833 -0.389681
			 0.490050 -0.786565 -0.375720
			 0.231093 -0.831866 -0.504573
			 0.634128 -0.606845 -0.479188
			 0.458710 -0.487677 -0.742803
			 0.567847 -0.361277 -0.739614
			 0.714490 -0.165540 -0.679780
			 0.518281 -0.515361 -0.682486
			 0.359554 -0.713390 -0.601494
			 0.320346 -0.699290 -0.639041
			 0.371984 -0.586561 -0.719426
			 0.574360 -0.587790 -0.569749
			 0.479715 -0.656091 -0.582596
			 0.684361 -0.505928 -0.525059
			 0.646483 -0.589815 -0.483919
			 0.915798  0.096741 -0.389814
			 0.939550  0.268946 -0.211930
			 0.227974  0.891574  0.391311
			 0.568377  0.681630  0.460792
			 0.745152  0.631786  0.213529
			 0.933824  0.357075  0.021657
			 0.952008  0.259688  0.161995
			 0.868514  0.440046  0.228130
			 0.752382  0.450377  0.480710
			 0.240342 -0.289163  0.926618
			-0.023592 -0.299806  0.953708
			 0.080864 -0.271998  0.958894
			 0.671282  0.006649  0.741172
			 0.910186  0.112582  0.398607
			 0.888053  0.222522  0.402300
			 0.758167 -0.167127  0.630278
			 0.483360 -0.320985  0.814452
			 0.937642  0.287221 -0.195783
			 0.970191  0.242332  0.002169
			 0.854081  0.352439  0.382534
			-0.157623 -0.439237  0.884435
			-0.500639 -0.674912  0.542084
			-0.259211 -0.657753  0.707228
			-0.220542 -0.833102 -0.507250
			-0.091701 -0.963896 -0.249989
			 0.275324 -0.948167 -0.158670
			-0.198642 -0.903514  0.379742
			 0.003193 -0.994680 -0.102962
			 0.374034 -0.901833 -0.216325
			 0.421384 -0.843315 -0.333550
			 0.305117 -0.831587 -0.464077
			 0.281778 -0.820607 -0.497198
			 0.517277 -0.422343 -0.744346
			 0.723055 -0.265981 -0.637530
			 0.903737 -0.089892 -0.418543
			 0.316948 -0.669317 -0.671981
			 0.472416 -0.567994 -0.673948
			 0.983869  0.062351 -0.167673
			 0.955189  0.218220 -0.199987
			 0.963111  0.223354 -0.150099
			 0.783526  0.487200  0.385647
			 0.064009 -0.484103  0.872667
			 0.331930 -0.526962  0.782390
			 0.464871 -0.509961  0.723764
			-0.054087 -0.456448  0.888105
			 0.980269  0.028323  0.195629
			 0.974739  0.199455 -0.100511
			 0.708872 -0.433897  0.556088
			 0.917076 -0.356513  0.178519
			 0.982795 -0.141104  0.119177
			-0.066465 -0.710267  0.700788
			 0.039244 -0.918689  0.393027
			 0.331568 -0.929137  0.163608
			 0.286291 -0.936126 -0.204219
			 0.625996 -0.638176 -0.448175
			 0.634320 -0.765361 -0.108904
			 0.679732 -0.377402 -0.628914
			 0.779968 -0.251480 -0.573068
			 0.952544 -0.219790 -0.210599
			 0.715128 -0.466281 -0.520743
			 0.243829 -0.760338  0.602024
			 0.553373 -0.706055  0.441888
			 0.786312 -0.558261  0.264686
			 0.857333 -0.511461 -0.058201
			 0.459823 -0.855204  0.239142
			 0.828736 -0.422315 -0.367215
		</DataArray>
	</PointData>
	<Points>
		<DataArray type="Float32" NumberOfComponents="3" format="ascii">
			-0.004016 -0.007764 -0.003450
			-0.003924 -0.008299 -0.003643
			-0.004132 -0.009492 -0.003187
			-0.004072 -0.007333 -0.002925
			-0.003916 -0.007734 -0.003659
			-0.003916 -0.007734 -0.003659
			-0.004012 -0.007485 -0.003458
			-0.003810 -0.008277 -0.003838
			-0.004222 -0.009664 -0.002489
			-0.004174 -0.009152 -0.002349
			-0.004397 -0.011226 -0.002759
			-0.003658 -0.008835 -0.003976
			-0.003962 -0.009987 -0.003607
			-0.004056 -0.007425 -0.002611
			-0.003940 -0.007153 -0.003704
			-0.003952 -0.005893 -0.002158
			-0.004023 -0.006052 -0.003528
			-0.003932 -0.005299 -0.002291
			-0.003916 -0.007734 -0.003659
			-0.003817 -0.007704 -0.003868
			-0.003394 -0.009392 -0.004310
			-0.003370 -0.008265 -0.004335
			-0.003806 -0.007913 -0.003850
			-0.004161 -0.009956 -0.001509
			-0.004306 -0.011586 -0.001567
			-0.004470 -0.011805 -0.002624
			-0.004261 -0.011617 -0.003510
			-0.003836 -0.009972 -0.003791
			-0.004009 -0.011587 -0.003879
			-0.003934 -0.005952 -0.001969
			-0.003889 -0.005579 -0.001340
			-0.003903 -0.007402 -0.000845
			-0.003200 -0.007135 -0.004527
			-0.003560 -0.005398 -0.004327
			-0.003964 -0.005431 -0.003797
			-0.003932 -0.005383 -0.001991
			-0.003932 -0.005383 -0.001991
			-0.003963 -0.004944 -0.003520
			-0.003932 -0.005383 -0.001991
			-0.003907 -0.004827 -0.001992
			-0.003690 -0.004123 -0.002716
			-0.003358 -0.007872 -0.004341
			-0.003366 -0.007698 -0.004355
			-0.003590 -0.010507 -0.004143
			-0.003179 -0.007715 -0.004484
			-0.003200 -0.010612 -0.004383
			-0.003854 -0.009180 -0.000579
			-0.003835 -0.008619 -0.000586
			-0.004100 -0.010660 -0.001067
			-0.003775 -0.009828 -0.000351
			-0.004415 -0.012608 -0.001826
			-0.004231 -0.012290 -0.001142
			-0.004510 -0.012316 -0.002769
			-0.004110 -0.011232 -0.001020
			-0.004490 -0.013284 -0.003350
			-0.004261 -0.012671 -0.003764
			-0.004543 -0.012826 -0.002922
			-0.003934 -0.012680 -0.004064
			-0.003771 -0.006461 -0.000321
			-0.003802 -0.005360 -0.000197
			-0.003899 -0.004916 -0.001684
			-0.003677 -0.004947  0.000202