<?xml version="1.0"?>
<VTKFile type="PolyData" version="0.1" byte_order="LittleEndian" compressor="vtkZLibDataCompressor">
	<PolyData>
		<Piece NumberOfPoints="1914" NumberOfVerts="0" NumberOfLines="0" NumberOfStrips="0" NumberOfPolys="3824">
		<PointData Normals="Normals">
		<DataArray type="Float32" Name="Normals" NumberOfComponents="3" format="ascii">
			-0.603667 -0.360471  0.711089
			-0.543591 -0.481696  0.687370
			-0.428719 -0.367035  0.825522
			-0.562654 -0.270145  0.781308
			-0.730024 -0.463981  0.501783
			-0.713317 -0.347620  0.608556
			-0.174580 -0.393523  0.902586
			-0.742076 -0.566381  0.358519
			-0.607669 -0.605005  0.514497
			-0.376889 -0.509109  0.773798
			-0.289895 -0.300124  0.908783
			-0.217908 -0.354953  0.909134
			-0.681666 -0.214358  0.699558
			-0.339146 -0.224686  0.913507
			-0.516927 -0.187180  0.835314
			-0.780380 -0.499633  0.375997
			-0.770652 -0.494087  0.402460
			-0.737556 -0.252745  0.626204
			-0.773708 -0.472460  0.422086
			 0.075744 -0.317062  0.945375
			-0.202926 -0.435995  0.876772
			 0.313391 -0.261524  0.912903
			 0.100449 -0.350353  0.931215
			-0.689646 -0.708027  0.151945
			-0.749516 -0.630305  0.202341
			-0.388549 -0.622433  0.679416
			-0.554860 -0.756273  0.346673
			-0.112380 -0.563253  0.818607
			-0.010474 -0.483596  0.875228
			-0.011414 -0.216388  0.976241
			-0.733892 -0.133377  0.666044
			-0.669367 -0.119340  0.733284
			-0.309055 -0.139769  0.940717
			-0.789891 -0.471421  0.392216
			-0.739330 -0.586088  0.331501
			-0.758380 -0.453991  0.467710
			-0.746164 -0.441564  0.498258
			-0.696302 -0.217836  0.683894
			 0.312477 -0.214855  0.925308
			 0.508736 -0.229597  0.829743
			 0.336932 -0.303929  0.891125
			 0.486684 -0.214924  0.846727
			-0.516369 -0.855861  0.029410
			-0.570702 -0.820738 -0.026237
			-0.510852 -0.849059  0.134648
			-0.594655 -0.786534  0.166584
			-0.087002 -0.713450  0.695284
			-0.367300 -0.816436  0.445559
			 0.185330 -0.459272  0.868747
			 0.231129 -0.210723  0.949829
			-0.646336 -0.076308  0.759228
			-0.674144 -0.145817  0.724063
			-0.513986 -0.099250  0.852038
			 0.006783 -0.170085  0.985406
			-0.172254 -0.107517  0.979167
			-0.266218 -0.079300  0.960645
			-0.564133 -0.541231  0.623556
			-0.564005 -0.706782  0.427034
			-0.561046 -0.493032  0.664941
			-0.615361 -0.280975  0.736467
			-0.629525 -0.090563  0.771684
			-0.692714 -0.158645  0.703548
			 0.440935 -0.290212  0.849325
			 0.558696 -0.292922  0.775922
			 0.492385 -0.248027  0.834290
			 0.404946 -0.209126  0.890104
			-0.376254 -0.907365 -0.187410
			 0.513914 -0.854697 -0.073385
			 0.949739 -0.312462 -0.019053
			-0.357101 -0.919285 -0.165509
			-0.400614 -0.910208  0.105017
			-0.309552 -0.877318  0.366729
			-0.393220 -0.913160 -0.107316
			-0.421714 -0.906654  0.011663
			-0.554637 -0.796666  0.240211
			 0.162447 -0.630683  0.758848
			-0.091173 -0.805659  0.585322
			 0.360571 -0.423262  0.831167
			 0.269348 -0.159022  0.949823
			-0.351480 -0.138774  0.925853
			-0.579860 -0.176886  0.795282
			-0.328012 -0.094312  0.939954
			-0.729655 -0.184642  0.658416
			-0.433046 -0.075293  0.898222
			 0.007745 -0.094871  0.995459
			-0.214781 -0.065671  0.974452
			-0.434158 -0.054244  0.899202
			 0.702610 -0.053822  0.709537
			 0.764592 -0.026865  0.643955
			-0.489880 -0.471596  0.733222
			-0.500461 -0.598584  0.625488
			-0.536413 -0.719668  0.440839
			-0.506241 -0.841837  0.187164
			-0.605140 -0.150534  0.781758
			-0.753378 -0.332704  0.567212
			-0.767094 -0.128019  0.628631
			-0.659325 -0.107774  0.744093
			-0.564843 -0.476588  0.673659
			-0.648734 -0.136266  0.748716
			-0.713237 -0.149610  0.684770
			 0.509746 -0.394556  0.764516
			 0.568710 -0.525117  0.633105
			 0.690793 -0.389144  0.609403
			 0.751818 -0.356477  0.554702
			 0.634347 -0.281299  0.720052
			 0.716749 -0.478841  0.506933
			 0.697236 -0.510675  0.503063
			 0.631178 -0.218696  0.744168
			 0.463193 -0.240996  0.852862
			 0.506399 -0.206755  0.837145
			 0.499011 -0.232337  0.834870
			 0.403855 -0.225194  0.886673
			 0.143334 -0.119063  0.982486
			 0.284288 -0.175848  0.942474
			-0.154668 -0.981192  0.115502
			-0.357620 -0.852488 -0.381276
			-0.238263 -0.845968 -0.477041
			-0.016000 -0.922078 -0.386674
			 0.000856 -0.986666 -0.162755
			 0.755141 -0.642661 -0.129415
			-0.154217 -0.971196 -0.181648
			-0.459316 -0.865517 -0.199774
			-0.211090 -0.894657  0.393738
			-0.268954 -0.909966 -0.315636
			-0.271876 -0.945990 -0.176596
			 0.070065 -0.840017  0.538018
			 0.336029 -0.572806  0.747648
			-0.366345 -0.122205  0.922419
			 0.969912 -0.009235  0.243281
			 0.770645 -0.090699  0.630777
			-0.697454 -0.183624  0.692705
			-0.588277 -0.158941  0.792886
			-0.433378 -0.160379  0.886827
			-0.832330 -0.089052  0.547079
			-0.774504 -0.134599  0.618083
			-0.413340 -0.067504  0.908071
			-0.255705 -0.067657  0.964384
			-0.047119 -0.029637  0.998449
			 0.036396 -0.040064  0.998534
			-0.129106 -0.090922  0.987454
			-0.681454 -0.528685  0.506076
			-0.609128 -0.764969  0.209251
			-0.691010 -0.668463  0.275068
			-0.643332 -0.611928  0.460073
			-0.445374 -0.895041  0.023319
			-0.600727 -0.793625  0.096365
			-0.681876 -0.102855  0.724200
			-0.904828 -0.182730  0.384573
			-0.886461 -0.310312  0.343357
			-0.702738 -0.048975  0.709761
			-0.876527 -0.086972  0.473430
			-0.754254 -0.064664  0.653391
			 0.401514 -0.705704  0.583754
			 0.609254 -0.630679  0.480681
			 0.492181 -0.821847  0.286923
			 0.547457 -0.741524  0.387856
			 0.547653 -0.658369  0.516358
			 0.831353 -0.269363  0.486104
			 0.889923 -0.385313  0.244070
			 0.905788 -0.319798  0.277987
			 0.813617 -0.463117  0.351497
			 0.596056 -0.249455  0.763210
			 0.852121 -0.255341  0.456827
			 0.742669 -0.290377  0.603427
			 0.672523 -0.687808  0.273192
			 0.650590 -0.685268  0.327323
			 0.744193 -0.645541  0.171621
			 0.596442 -0.184921  0.781064
			 0.924807 -0.081583  0.371587
			 0.839442 -0.137847  0.525676
			 0.538922 -0.195809  0.819281
			 0.479064 -0.213439  0.851435
			 0.572700 -0.132608  0.808968
			 0.700158 -0.098579  0.707150
			 0.472944 -0.203616  0.857243
			 0.236278 -0.051569  0.970316
			 0.354365 -0.146323  0.923588
			 0.150715 -0.968726  0.197115
			-0.232163 -0.759935 -0.607124
			-0.053776 -0.760344 -0.647290
			 0.330514 -0.927600 -0.174123
			 0.176787 -0.912825 -0.368100
			 0.170187 -0.818764 -0.548326
			 0.272324 -0.962167  0.008592
			-0.125329 -0.795951 -0.592245
			-0.065453 -0.889234 -0.452746
			-0.355622 -0.882828 -0.306834
			-0.249014 -0.914032 -0.320214
			-0.535646 -0.830729 -0.151566
			 0.011602 -0.923644 -0.383075
			-0.136311 -0.143108  0.980275
			-0.723478 -0.186712  0.664619
			-0.788437 -0.164333  0.592758
			-0.448614 -0.185191  0.874328
			-0.888891 -0.079176  0.451225
			-0.899929  0.011850  0.435877
			-0.969429  0.058036  0.238409
			 0.118555 -0.011693  0.992879
			 0.123130 -0.072504  0.989738
			-0.818598 -0.505984  0.271806
			-0.767916 -0.638457  0.051745
			-0.874405 -0.478276  0.081661
			-0.640766 -0.766028 -0.051187
			-0.976781 -0.200168  0.076364
			-0.966346 -0.115029  0.230093
			-0.936490 -0.326065  0.129103
			-0.982251 -0.123201  0.141434
			-0.910071 -0.059633  0.410139
			-0.843362 -0.024402  0.536791
			 0.418180 -0.842249  0.340209
			 0.507373 -0.839381  0.194965
			 0.513733 -0.847133  0.135809
			 0.433655 -0.901078 -0.001404
			 0.517088 -0.837074  0.178684
			 0.952009 -0.223785  0.208805
			 0.956018 -0.282318 -0.079541
			 0.897297 -0.436459 -0.066037
			 0.862016 -0.503185  0.061103
			 0.699825 -0.234001  0.674899
			 0.933219 -0.170978  0.316020
			 0.973149 -0.148288  0.176043
			 0.542550 -0.839171  0.037846
			 0.601204 -0.798738 -0.023898
			 0.693123 -0.698622 -0.177504
			 0.922893 -0.072532  0.378163
			 0.621823 -0.162673  0.766077
			 0.679448 -0.085881  0.728680
			 0.550041 -0.100121  0.829115
			 0.668803  0.027738  0.742922
			 0.717278  0.014808  0.696630
			 0.534544 -0.109046  0.838076
			 0.475308 -0.010812  0.879753
			 0.449234  0.024749  0.893071
			 0.279362 -0.032692  0.959629
			 0.061893 -0.634852 -0.770151
			 0.107410 -0.569243 -0.815123
			 0.201820 -0.689115 -0.695981
			 0.385653 -0.908786 -0.159310
			 0.331776 -0.852820 -0.403265
			 0.378186 -0.633728 -0.674807
			-0.009257 -0.741665 -0.670707
			-0.473950 -0.665188 -0.576973
			-0.585843 -0.725302 -0.361559
			-0.133949 -0.826626 -0.546578
			-0.075251 -0.939412 -0.334427
			-0.776830 -0.598801 -0.194865
			-0.746728 -0.610332 -0.264373
			 0.183465 -0.893715 -0.409407
			 0.324516 -0.763140 -0.558844
			-0.307164 -0.170697  0.936222
			-0.047432 -0.145617  0.988203
			-0.320697 -0.145752  0.935900
			 0.219373 -0.141359  0.965346
			 0.100031 -0.159136  0.982176
			-0.522632 -0.170488  0.835338
			-0.589390 -0.178179  0.787954
			-0.721862 -0.180444  0.668099
			-0.858743 -0.132100  0.495085
			-0.881988 -0.148017  0.447425
			-0.846197 -0.168967  0.505372
			-0.978077 -0.051563  0.201761
			-0.912642  0.034865  0.407271
			-0.985989  0.046354  0.160237
			-0.991962  0.099150 -0.078620
			-0.993158  0.055019 -0.103008
			 0.465700 -0.065002  0.882552
			-0.805481 -0.581139 -0.116093
			-0.907122 -0.406987 -0.107200
			-0.959271 -0.280435 -0.033975
			-0.949868 -0.147787 -0.275517
			-0.976949 -0.132611 -0.167288
			-0.999594 -0.008331  0.027255
			-0.975081 -0.052900 -0.215452
			-0.954335 -0.109784  0.277836
			-0.977308 -0.006603  0.211720
			 0.421518 -0.886839 -0.189312
			 0.993391 -0.110128 -0.032351
			 0.849083 -0.280339 -0.447737
			 0.944715 -0.153667 -0.289655
			 0.840426 -0.414741 -0.348817
			 0.776950 -0.527998 -0.342880
			 0.820184 -0.100637  0.563178
			 0.998884 -0.028927 -0.037341
			 0.985581  0.006447  0.169079
			 0.554593 -0.796221 -0.241783
			 0.570990 -0.646791 -0.505600
			 0.717492  0.033667  0.695753
			 0.713388  0.077800  0.696437
			 0.591895  0.021669  0.805723
			 0.825041  0.203210  0.527268
			 0.786564  0.185327  0.589042
			 0.770168  0.224852  0.596894
			 0.829137  0.172470  0.531775
			 0.680784  0.142992  0.718392
			 0.550380  0.036641  0.834110
			 0.205122 -0.567188 -0.797635
			 0.947875 -0.171508 -0.268549
			 0.834268 -0.275783 -0.477430
			 0.328344 -0.421698 -0.845199
			 0.251401 -0.479197 -0.840932
			 0.274642 -0.585426 -0.762790
			 0.466274 -0.758664 -0.454992
			 0.583889 -0.480429 -0.654417
			 0.412943 -0.476177 -0.776359
			 0.177387 -0.603599 -0.777304
			 0.020173 -0.544737 -0.838364
			-0.441623 -0.562724 -0.698793
			-0.248574 -0.718854 -0.649199
			-0.702440 -0.498325 -0.508183
			-0.632246 -0.449583 -0.630984
			-0.682570 -0.384079 -0.621756
			 0.248370 -0.785056 -0.567450
			 0.138467 -0.871628 -0.470204
			 0.187358 -0.694618 -0.694553
			-0.886300 -0.351903 -0.301061
			-0.818927 -0.450965 -0.354949
			 0.495235 -0.637971 -0.589691
			 0.517307 -0.628042 -0.581340
			 0.373777 -0.619908 -0.689931
			-0.217452 -0.137768  0.966299
			 0.183550 -0.113688  0.976414
			-0.030167 -0.117579  0.992605
			-0.395814 -0.151317  0.905778
			-0.630352 -0.160908  0.759450
			 0.501107 -0.138078  0.854299
			 0.299561 -0.134733  0.944516
			-0.812703 -0.123352  0.569472
			-0.947883 -0.080573  0.308262
			-0.923332 -0.126583  0.362540
			-0.899842 -0.092462  0.426305
			-0.936125 -0.072054  0.344207
			-0.997091 -0.034481  0.067977
			-0.990006  0.018833  0.139764
			-0.999519 -0.020683  0.023105
			-0.991347  0.039684 -0.125127
			-0.983170 -0.062786  0.171562
			-0.985669  0.028395 -0.166283
			-0.978742  0.047592 -0.199498
			-0.960207  0.077433 -0.268342
			-0.940216  0.101680 -0.325046
			-0.968177  0.079814 -0.237198
			-0.923657  0.079171 -0.374954
			 0.738762  0.089798  0.667957
			 0.778833 -0.007234  0.627190
			-0.819095 -0.253808 -0.514456
			-0.912205 -0.040302 -0.407747
			-0.860871 -0.139883 -0.489218
			-0.903476 -0.008554 -0.428553
			-0.923161 -0.011080 -0.384254
			 0.939713 -0.040374 -0.339572
			 0.978409  0.016321 -0.206032
			 0.789161 -0.158238 -0.593453
			 0.716922 -0.360002 -0.597010
			 0.873268  0.150903  0.463283
			 0.986760  0.080834 -0.140611
			 0.949779  0.142125 -0.278784
			 0.970309  0.205201  0.128038
			 0.984947  0.121835 -0.122619
			 0.871018  0.243868  0.426447
			 0.835878  0.320937  0.445318
			 0.866457  0.409497  0.285595
			 0.897360  0.316458  0.307570
			 0.837295  0.391062  0.382109
			 0.888350  0.358122  0.287374
			 0.823763  0.149501  0.546867
			 0.729075 -0.351336 -0.587378
			 0.156541 -0.430277 -0.889020
			 0.261960 -0.353284 -0.898091
			 0.567306 -0.415303 -0.711116
			 0.404834 -0.305097 -0.861989
			 0.593030 -0.305251 -0.745075
			 0.125809 -0.535614 -0.835039
			 0.357445 -0.594929 -0.719925
			-0.059487 -0.604454 -0.794416
			-0.544801 -0.430454 -0.719653
			-0.143749 -0.525409 -0.838619
			-0.744248 -0.352726 -0.567168
			-0.783774 -0.294137 -0.546976
			 0.457338 -0.638144 -0.619366
			 0.196477 -0.651418 -0.732838
			 0.622086 -0.480775 -0.617953
			-0.205862 -0.113517  0.971975
			-0.419259 -0.132941  0.898080
			-0.327197 -0.128794  0.936138
			 0.249902 -0.090757  0.964008
			 0.390210 -0.111733  0.913921
			 0.494488 -0.146244  0.856793
			 0.084580 -0.096793  0.991704
			-0.109332 -0.108052  0.988115
			-0.560022 -0.128600  0.818436
			-0.788248 -0.132537  0.600916
			-0.740918 -0.119141  0.660943
			 0.695454 -0.121381  0.708244
			 0.575249 -0.153920  0.803366
			-0.908396 -0.073163  0.411660
			-0.840217 -0.090019  0.534726
			-0.959570 -0.041634  0.278373
			-0.957985 -0.037335  0.284378
			-0.988860  0.047854 -0.140949
			-0.994678 -0.045923  0.092235
			-0.997683 -0.006717 -0.067700
			-0.957966 -0.019589 -0.286212
			-0.822835  0.009995 -0.568192
			-0.990280 -0.026601  0.136523
			-0.920811  0.033497 -0.388567
			-0.862673  0.073610 -0.500377
			-0.843576  0.097421 -0.528100
			-0.808958  0.047653 -0.585932
			 0.832031  0.015931  0.554500
			 0.952044  0.137976  0.273083
			 0.846712 -0.036375  0.530806
			 0.898120  0.153147  0.412221
			-0.844404 -0.039084 -0.534279
			-0.896743  0.034159 -0.441232
			-0.869530 -0.151594 -0.470039
			-0.919943 -0.020812 -0.391499
			 0.770192 -0.015425 -0.637626
			 0.869270  0.089249 -0.486213
			 0.556681 -0.122542 -0.821639
			 0.921233  0.313788  0.229928
			 0.911968  0.260394 -0.317033
			 0.835766  0.309674 -0.453429
			 0.832449  0.198691 -0.517253
			 0.946078  0.263996 -0.187733
			 0.951584  0.304764  0.040091
			 0.935012  0.350041  0.056772
			 0.849504  0.495318  0.181666
			 0.847094  0.520332 -0.108100
			 0.871622  0.476723  0.114062
			 0.837576  0.546311 -0.003345
			 0.916396  0.398554 -0.037055
			 0.275640 -0.314935 -0.908206
			 0.390415 -0.453065 -0.801441
			 0.256422 -0.190358 -0.947635
			 0.303872 -0.184524 -0.934673
			-0.385037 -0.395861 -0.833691
			 0.282502 -0.341165 -0.896549
			-0.705469 -0.349561 -0.616539
			-0.460221 -0.372255 -0.805992
			 0.073775 -0.450454 -0.889747
			 0.308344 -0.551376 -0.775183
			-0.172830 -0.347030 -0.921792
			 0.165425 -0.638388 -0.751728
			-0.877781 -0.152668 -0.454084
			 0.376462 -0.659942 -0.650194
			 0.568444 -0.475669 -0.671275
			 0.697457 -0.375538 -0.610348
			 0.724350 -0.286724 -0.626981
			-0.278667 -0.116646  0.953278
			-0.412177 -0.117101  0.903547
			 0.450744 -0.107629  0.886141
			 0.183109 -0.083025  0.979580
			 0.279686 -0.097214  0.955157
			 0.618763 -0.168517  0.767290
			 0.639628 -0.161298  0.751571
			 0.070570 -0.103021  0.992173
			-0.166729 -0.137328  0.976393
			-0.256277 -0.125949  0.958363
			 0.014361 -0.130727  0.991314
			-0.646121 -0.108068  0.755545
			-0.490200 -0.103713  0.865418
			-0.774702 -0.087955  0.626180
			 0.943213 -0.052671  0.327988
			 0.752299 -0.133051  0.645247
			 0.619283 -0.153933  0.769930
			-0.909346 -0.047060  0.413370
			-0.953430 -0.025163  0.300564
			-0.954037 -0.028300  0.298349
			-0.980122 -0.026728  0.196585
			-0.978481  0.039064 -0.202606
			-0.999317 -0.026399 -0.025840
			-0.989195 -0.044163 -0.139797
			-0.824289 -0.074304 -0.561272
			-0.976610 -0.051903 -0.208659
			-0.681839  0.096699 -0.725083
			-0.587758  0.027870 -0.808557
			-0.981516 -0.019087  0.190425
			-0.993700 -0.003058  0.112035
			-0.782980  0.177275 -0.596252
			-0.695680  0.172502 -0.697332
			 0.962171  0.067406  0.263975
			 0.946997  0.258903 -0.190172
			 0.986209  0.162329  0.032253
			 0.915687 -0.057745  0.397722
			 0.912830 -0.021672  0.407765
			-0.841137  0.060649 -0.537411
			-0.929084  0.034637 -0.368243
			-0.852204  0.132586 -0.506131
			-0.852333  0.073718 -0.517777
			 0.574229  0.002488 -0.818691
			 0.705137  0.075902 -0.704997
			 0.698262  0.194170 -0.689005
			 0.366003 -0.009171 -0.930568
			 0.782253  0.439449 -0.441548
			 0.741627  0.471320 -0.477333
			 0.847773  0.416866 -0.327876
			 0.692414  0.484692 -0.534450
			 0.698664  0.359496 -0.618572
			 0.849329  0.448095 -0.279017
			 0.879290  0.363444 -0.307827
			 0.755003  0.597809 -0.269434
			 0.682876  0.504654 -0.528209
			 0.849071  0.505563 -0.153247
			 0.749710  0.553481 -0.362759
			 0.390441 -0.262094 -0.882532
			 0.675205 -0.263919 -0.688800
			 0.374765 -0.040458 -0.926237
			-0.403536 -0.254055 -0.878985
			 0.752636 -0.213553 -0.622844
			 0.759885 -0.127143 -0.637502
			-0.319478 -0.097913 -0.942522
			-0.810264 -0.187102 -0.555397
			-0.693929 -0.217148 -0.686519
			 0.376978 -0.390693 -0.839789
			 0.187840 -0.312608 -0.931124
			-0.024190 -0.212639 -0.976831
			 0.573165 -0.366308 -0.733008
			-0.242223 -0.126711 -0.961911
			-0.361614 -0.099222 -0.927033
			 0.681165 -0.189363 -0.707217
			 0.617585 -0.078475 -0.782579
			 0.777328 -0.096366 -0.621671
			 0.797237 -0.196580 -0.570762
			-0.570327 -0.119927  0.812616
			-0.352702 -0.137761  0.925539
			 0.613094 -0.152774  0.775097
			 0.550491 -0.089090  0.830074
			 0.602837 -0.138015  0.785837
			 0.408405 -0.099997  0.907307
			 0.277946 -0.114567  0.953740
			 0.570979 -0.077047  0.817341
			 0.807348 -0.171323  0.564658
			 0.814185 -0.163785  0.557025
			 0.835675 -0.222084  0.502321
			-0.113042 -0.251956  0.961114
			-0.447147 -0.124561  0.885745
			-0.421438 -0.134149  0.896880
			-0.204773 -0.107286  0.972912
			-0.346141 -0.122195  0.930191
			-0.435385 -0.124842  0.891546
			 0.056007 -0.180210  0.982032
			-0.898617 -0.063883  0.434058
			-0.791729 -0.109718  0.600938
			 0.971697 -0.058970  0.228751
			 0.981543 -0.046476  0.185510
			 0.830967 -0.122880  0.542582
			-0.998815 -0.018849  0.044872
			-0.999736 -0.013806  0.018349
			-0.998306 -0.015020 -0.056204
			-0.881912 -0.087378  0.463245
			-0.963963 -0.063358  0.258380
			-0.992643 -0.050073  0.110237
			-0.958045 -0.060219 -0.280219
			-0.468757 -0.071737 -0.880409
			-0.868729 -0.060043 -0.491635
			-0.724596 -0.101957 -0.681590
			-0.396399  0.131803 -0.908568
			-0.329938  0.041539 -0.943088
			-0.574334  0.306588 -0.759042
			-0.524506  0.477983 -0.704575
			-0.724394  0.318481 -0.611411
			-0.253787  0.282485 -0.925091
			 0.993076  0.057120  0.102655
			 0.978658  0.115225 -0.170153
			 0.952766  0.199729 -0.228790
			 0.881336  0.199403 -0.428352
			 0.811305  0.278879 -0.513819
			 0.957976  0.193297 -0.211940
			 0.984900 -0.040279  0.168375
			 0.893296 -0.123754  0.432096
			-0.729745  0.204094 -0.652547
			-0.877201 -0.028781 -0.479260
			-0.832067  0.090063 -0.547315
			-0.568454  0.062891 -0.820307
			-0.620079  0.116714 -0.775809
			-0.620067  0.116145 -0.775904
			 0.586781  0.129580 -0.799311
			 0.463404  0.092673 -0.881288
			 0.605864  0.352012 -0.713454
			 0.524322  0.200007 -0.827698
			 0.502692  0.193484 -0.842534
			 0.639981  0.555014 -0.531398
			 0.598777  0.582003 -0.550217
			 0.595249  0.579622 -0.556522
			 0.548717  0.611230 -0.570357
			 0.594717  0.495281 -0.633253
			 0.757948  0.362935 -0.542026
			 0.524532  0.603213 -0.600834
			 0.690805  0.363498 -0.625026
			 0.692930  0.330208 -0.640945
			 0.555863 -0.158798 -0.815965
			 0.746548 -0.104217 -0.657119
			 0.542049  0.056035 -0.838476
			-0.473960 -0.078325 -0.877056
			-0.476147 -0.081231 -0.875606
			-0.789978 -0.049912 -0.611100
			 0.459334 -0.205932 -0.864062
			 0.196924 -0.156594 -0.967832
			-0.062992 -0.004018 -0.998006
			-0.320831  0.043105 -0.946155
			 0.706935  0.115886 -0.697720
			 0.240543  0.015446 -0.970515
			 0.403407  0.156649 -0.901512
			 0.807937  0.022762 -0.588830
			-0.527242 -0.127462  0.840101
			-0.720641 -0.122613  0.682380
			 0.776196 -0.147963  0.612884
			 0.784860 -0.131329  0.605596
			 0.762743 -0.094875  0.639704
			 0.525716 -0.085834  0.846319
			 0.613761 -0.073842  0.786031
			 0.180948 -0.103443  0.978038
			 0.553457 -0.113631  0.825090
			 0.761071 -0.060877  0.645806
			 0.748876 -0.056389  0.660307
			 0.961060 -0.172732  0.215700
			 0.941241 -0.153267  0.300957
			 0.917007 -0.104686  0.384888
			 0.954984 -0.149937  0.255977
			-0.166582 -0.181447  0.969189
			-0.032937 -0.278065  0.959997
			-0.472986 -0.131639  0.871181
			-0.562791 -0.127837  0.816654
			-0.187218 -0.131746  0.973444
			-0.400205 -0.140738  0.905554
			-0.285212 -0.115463  0.951484
			 0.042326 -0.096729  0.994410
			-0.986177  0.003620 -0.165657
			-0.988422 -0.002601 -0.151704
			-0.999243 -0.036895  0.012331
			-0.937380 -0.041904 -0.345778
			-0.764065 -0.099213  0.637465
			-0.930020 -0.067585  0.361243
			-0.820765 -0.081076  0.565483
			-0.985189 -0.060268  0.160533
			-0.996340 -0.053461  0.066697
			-0.893106 -0.061884 -0.445570
			-0.015789 -0.002274 -0.999873
			-0.735008 -0.065388 -0.674898
			-0.548883 -0.080760 -0.831989
			-0.199615 -0.090181 -0.975716
			-0.099210  0.231335 -0.967802
			-0.094667  0.161571 -0.982310
			-0.038531  0.097433 -0.994496
			-0.306886  0.395741 -0.865569
			-0.110239  0.473216 -0.874022
			-0.455098  0.573079 -0.681518
			-0.209297  0.654849 -0.726200
			-0.596773  0.412463 -0.688285
			 0.132931  0.244854 -0.960404
			 0.219321  0.288162 -0.932127
			 0.068058  0.379979 -0.922488
			 0.968380  0.056875 -0.242910
			 0.879419  0.147588 -0.452593
			 0.890309  0.067980 -0.450254
			 0.769117  0.238995 -0.592739
			 0.962285  0.003157 -0.272025
			 0.998945 -0.045087  0.008715
			-0.501903  0.310502 -0.807269
			-0.451439  0.463004 -0.762778
			-0.362925  0.143893 -0.920641
			-0.442224  0.084396 -0.892925
			-0.400478  0.080285 -0.912783
			-0.412860  0.209633 -0.886341
			 0.531892  0.545910 -0.647359
			 0.526590  0.390767 -0.754986
			 0.538816  0.585190 -0.605995
			 0.623257  0.231569 -0.746945
			 0.662055  0.324173 -0.675718
			 0.570161  0.406712 -0.713794
			 0.564351  0.606804 -0.559730
			 0.538568  0.668443 -0.512960
			 0.604843  0.437077 -0.665679
			 0.577088  0.572243 -0.582673
			 0.693409  0.244189 -0.677905
			 0.637594  0.332381 -0.694980
			 0.740362  0.213241 -0.637489
			 0.764582  0.138642 -0.629438
			-0.100194  0.170695 -0.980216
			 0.797241  0.147522 -0.585359
			 0.693238  0.259118 -0.672516
			 0.446945  0.276807 -0.850657
			 0.145878  0.162124 -0.975928
			 0.061437  0.237865 -0.969353
			-0.642586 -0.102646  0.759307
			 0.946407 -0.133327  0.294174
			 0.884057 -0.097761  0.457041
			 0.592230 -0.126023  0.795853
			 0.724141 -0.075293  0.685530
			-0.004425 -0.079464  0.996828
			 0.010174 -0.154558  0.987931
			 0.225692 -0.147269  0.963003
			 0.921201 -0.052268  0.385560
			 0.408021 -0.137542  0.902552
			 0.868158 -0.083486  0.489215
			 0.884155 -0.057218  0.463677
			 0.878672 -0.052294  0.474554
			 0.987591 -0.156109 -0.017139
			 0.990362 -0.124563 -0.060557
			 0.991779 -0.126618  0.018523
			-0.064922 -0.101906  0.992673
			-0.814201 -0.104682  0.571067
			-0.739227 -0.127715  0.661235
			-0.676172 -0.108662  0.728686
			-0.472952 -0.132747  0.871031
			-0.046050 -0.137759  0.989395
			-0.292236 -0.138448  0.946272
			-0.151844 -0.113769  0.981835
			-0.919895  0.032540 -0.390813
			-0.929931  0.002816 -0.367723
			-0.998738 -0.045556  0.021148
			-0.993736 -0.035604 -0.105930
			-0.957396  0.020851 -0.288025
			-0.783129 -0.070618 -0.617837
			-0.826615 -0.021434 -0.562360
			-0.928903 -0.080713  0.361420
			-0.997039 -0.051624  0.056994
			-0.989154 -0.069234  0.129540
			 0.105685  0.054091 -0.992927
			 0.263601  0.008748 -0.964592
			 0.122105 -0.079214 -0.989351
			-0.657054 -0.070753 -0.750516
			-0.318547 -0.102990 -0.942295
			-0.373437 -0.080606 -0.924147
			-0.631241 -0.075908 -0.771863
			-0.050454 -0.090245 -0.994641
			 0.098192  0.224581 -0.969496
			 0.203609  0.142126 -0.968681
			 0.068391  0.612044 -0.787861
			 0.074924  0.476316 -0.876076
			-0.136194  0.679874 -0.720571
			-0.452399  0.558014 -0.695670
			 0.209156  0.693827 -0.689100
			 0.313881  0.225026 -0.922411
			 0.385080  0.219358 -0.896435
			 0.263627  0.227268 -0.937470
			 0.415469  0.356983 -0.836629
			 0.530434  0.208146 -0.821775
			 0.296691  0.534712 -0.791238
			 0.888575  0.061535 -0.454586
			 0.844882  0.070451 -0.530293
			 0.822308  0.126711 -0.554756
			 0.842371  0.106761 -0.528217
			 0.943024  0.069230 -0.325444
			 0.925945  0.041279 -0.375397
			 0.938023 -0.067678 -0.339901
			-0.199905  0.380702 -0.902831
			-0.250836  0.486430 -0.836939
			-0.300660  0.569906 -0.764730
			 0.064560  0.567624 -0.820752
			-0.082243  0.173318 -0.981426
			-0.152881  0.199738 -0.967849
			 0.613699  0.442240 -0.654062
			 0.911911  0.169113 -0.373925
			 0.757995  0.359174 -0.544461
			 0.581488  0.667314 -0.465365
			 0.602001  0.562051 -0.567181
			 0.593947  0.415302 -0.689022
			 0.571944  0.592882 -0.566895
			 0.657456  0.165706 -0.735046
			 0.669528  0.145186 -0.728460
			 0.760748  0.156435 -0.629913
			 0.603942  0.438732 -0.665409
			 0.668514  0.301348 -0.679910
			 0.871074  0.264293 -0.413981
			 0.791463  0.303670 -0.530444
			 0.738146  0.338002 -0.583862
			 0.586791  0.397194 -0.705630
			 0.719695  0.422639 -0.550832
			 0.658350  0.417025 -0.626630
			 0.182181  0.258964 -0.948550
			 0.426896  0.392613 -0.814625
			 0.961180 -0.134312 -0.241023
			 0.979038 -0.117580  0.166310
			 0.876911 -0.081735  0.473652
			 0.585469 -0.145445  0.797542
			 0.880745 -0.083060  0.466250
			 0.198745 -0.136730  0.970467
			 0.544109 -0.104491  0.832482
			 0.908709 -0.060278  0.413056
			 0.621917 -0.108288  0.775560
			 0.974490 -0.046225  0.219620
			 0.989544 -0.047201  0.136287
			 0.955521 -0.160642 -0.247334
			-0.812484 -0.096252  0.574982
			-0.933418 -0.099979  0.344580
			-0.718185 -0.123116  0.684875
			-0.287325 -0.118710  0.950448
			-0.406285 -0.131496  0.904235
			 0.028848 -0.107964  0.993736
			-0.185826 -0.150894  0.970927
			-0.845909  0.045777 -0.531359
			-0.918402  0.040962 -0.393523
			-0.777340  0.028732 -0.628425
			-0.942384 -0.021226 -0.333858
			-0.999246 -0.032301 -0.021524
			-0.976772 -0.037626 -0.210952
			-0.655552 -0.037018 -0.754242
			-0.980771 -0.085391  0.175491
			-0.997748 -0.058668 -0.032506
			-0.995336 -0.072534  0.063593
			 0.258266  0.069453 -0.963574
			 0.497726 -0.074304 -0.864146
			 0.373967  0.004494 -0.927431
			 0.179130 -0.090350 -0.979668
			 0.002931 -0.097513 -0.995230
			-0.442269 -0.053151 -0.895306
			-0.114748 -0.064586 -0.991293
			 0.386854  0.149892 -0.909877
			 0.415440  0.591201 -0.691296
			 0.535149  0.581416 -0.612838
			 0.600307  0.101680 -0.793280
			 0.547365  0.424879 -0.721019
			 0.686642  0.326285 -0.649663
			 0.678365  0.170139 -0.714754
			 0.638317  0.112958 -0.761441
			 0.804277  0.025101 -0.593724
			 0.724237  0.055407 -0.687322
			 0.887066  0.019225 -0.461242
			 0.872899  0.000896 -0.487901
			 0.755126  0.077776 -0.650950
			 0.914068 -0.002949 -0.405549
			 0.904516  0.064113 -0.421592
			 0.890756  0.095766 -0.444277
			 0.840044  0.109387 -0.531376
			 0.979457  0.050000 -0.195354
			 0.992225  0.029915 -0.120809
			 0.841010 -0.092761 -0.533008
			 0.870102 -0.103525 -0.481877
			 0.057448  0.544247 -0.836956
			 0.052465  0.381018 -0.923078
			 0.342342  0.660370 -0.668366
			 0.335275  0.500347 -0.798276
			 0.207130  0.326423 -0.922250
			 0.552475  0.625491 -0.550937
			 0.641294  0.605949 -0.470710
			 0.979826  0.128167 -0.153341
			 0.971997  0.165222 -0.167104
			 0.781340  0.488991 -0.387809
			 0.584662  0.616856 -0.526934
			 0.739017  0.177451 -0.649895
			 0.684027  0.116870 -0.720034
			 0.665501  0.130609 -0.734881
			 0.727656  0.113521 -0.676484
			 0.632405  0.568305 -0.526396
			 0.651334  0.464899 -0.599693
			 0.736582  0.413365 -0.535328
			 0.765121  0.335603 -0.549510
			 0.804625  0.460341 -0.375052
			 0.802579  0.484164 -0.348500
			 0.549554  0.585012 -0.596449
			 0.642760  0.561129 -0.521530
			 0.660173  0.579601 -0.477738
			 0.737464  0.556295 -0.382992
			 0.443485  0.525617 -0.725981
			 0.913921 -0.116665 -0.388765
			 0.994242 -0.087744 -0.061515
			 0.816939 -0.165194 -0.552559
			 0.729772 -0.102971  0.675892
			 0.820541 -0.091876  0.564156
			 0.867493 -0.109835  0.485171
			 0.956026 -0.072545  0.284167
			 0.977567 -0.043873  0.206006
			 0.970982 -0.090354  0.221427
			 0.939497 -0.099933  0.327657
			 0.239592 -0.124858  0.962812
			 0.445430 -0.127433  0.886201
			 0.499320 -0.167538  0.850065
			 0.990042 -0.052167 -0.130752
			 0.980396 -0.049616 -0.190686
			 0.997275 -0.066965 -0.030944