<?xml version="1.0"?>
<VTKFile type="PolyData" version="0.1" byte_order="LittleEndian" compressor="vtkZLibDataCompressor">
	<PolyData>
		<Piece NumberOfPoints="3280" NumberOfVerts="0" NumberOfLines="0" NumberOfStrips="0" NumberOfPolys="6556">
		<PointData Normals="Normals">
		<DataArray type="Float32" Name="Normals" NumberOfComponents="3" format="ascii">
			 0.969438  0.123695 -0.211869
			 0.959847  0.162999 -0.228307
			 0.910376  0.145858 -0.387222
			 0.888962  0.089096 -0.449232
			 0.989881  0.141556 -0.009885
			 0.952123  0.076983 -0.295865
			 0.986223  0.112624 -0.121161
			 0.972468  0.164398 -0.165166
			 0.812486  0.121721 -0.570131
			 0.790128  0.117285 -0.601617
			 0.901130  0.148420 -0.407353
			 0.864348  0.101777 -0.492488
			 0.926370  0.062673 -0.371363
			 0.834564  0.089133 -0.543654
			 0.774966  0.106648 -0.622939
			 0.972504  0.170980  0.158121
			 0.992880  0.093874  0.073324
			 0.900093  0.159997  0.405258
			 0.979328  0.097971 -0.176973
			 0.971297  0.158120 -0.177706
			 0.968397  0.181735  0.170819
			 0.981125  0.187424 -0.047602
			 0.742540  0.123939 -0.658236
			 0.774597  0.127184 -0.619535
			 0.702410  0.120070 -0.701572
			 0.697849  0.087620 -0.710865
			 0.789388  0.115270 -0.602976
			 0.859299  0.121720 -0.496779
			 0.661214  0.099980 -0.743506
			 0.641057  0.086843 -0.762564
			 0.924532  0.149086 -0.350734
			 0.855664  0.076278 -0.511880
			 0.937537  0.067220 -0.341330
			 0.987392  0.023524 -0.156536
			 0.955675  0.076766 -0.284238
			 0.679197  0.085857 -0.728917
			 0.827633  0.069728 -0.556921
			 0.740801  0.090742 -0.665567
			 0.674628  0.096137 -0.731871
			 0.879834  0.164912  0.445755
			 0.889045  0.110932  0.444178
			 0.943547  0.096718  0.316804
			 0.954982  0.098235  0.279927
			 0.995088  0.061019 -0.077949
			 0.964575  0.076548  0.252459
			 0.778792  0.104493  0.618518
			 0.712929  0.146238  0.685818
			 0.975181  0.186304 -0.119635
			 0.973930  0.218001  0.062746
			 0.820838  0.165648  0.546613
			 0.884022  0.224119  0.410214
			 0.754415  0.100932 -0.648591
			 0.526464  0.126319 -0.840761
			 0.592978  0.122431 -0.795857
			 0.695141  0.137044 -0.705689
			 0.598579  0.089065 -0.796097
			 0.838912  0.133120 -0.527737
			 0.821836  0.125079 -0.555824
			 0.514252  0.109699 -0.850594
			 0.469239  0.084107 -0.879057
			 0.807672  0.147542 -0.570874
			 0.851765  0.178333 -0.492640
			 0.933452  0.190592 -0.303877
			 0.971823  0.216674 -0.092806
			 0.931584  0.047113 -0.360461
			 0.910450  0.060579 -0.409160
			 0.631122  0.095411 -0.769793
			 0.765457  0.060822 -0.640606
			 0.794502  0.076640 -0.602406
			 0.557952  0.102067 -0.823572
			 0.601752  0.048577 -0.797204
			 0.557389  0.079346 -0.826451
			 0.607953  0.106323 -0.786822
			 0.755904  0.167627  0.632859
			 0.854545  0.097651  0.510114
			 0.985602  0.039784 -0.164332
			 0.997886  0.058672 -0.027945
			 0.870659  0.072961  0.486447
			 0.897989  0.068310  0.434683
			 0.962204  0.052460  0.267228
			 0.727006  0.092477  0.680375
			 0.654770  0.083290  0.751225
			 0.605742  0.098008  0.789602
			 0.640006  0.154221  0.752734
			 0.570253  0.118571  0.812867
			 0.975403  0.220198 -0.010119
			 0.948651  0.237204  0.209272
			 0.739490  0.168252  0.651802
			 0.676259  0.165414  0.717852
			 0.837236  0.216279  0.502254
			 0.432072  0.078705 -0.898398
			 0.345856  0.096928 -0.933268
			 0.256805  0.071687 -0.963801
			 0.596893  0.128270 -0.792001
			 0.513350  0.107845 -0.851376
			 0.726507  0.141657 -0.672399
			 0.702596  0.130175 -0.699581
			 0.616002  0.128746 -0.777152
			 0.462665  0.088469 -0.882108
			 0.767809  0.147608 -0.623444
			 0.935057  0.075851 -0.346287
			 0.929087  0.068785 -0.363410
			 0.341794  0.096912 -0.934765
			 0.253881  0.047915 -0.966048
			 0.202489  0.053941 -0.977798
			 0.762460  0.149154 -0.629609
			 0.762971  0.155928 -0.627344
			 0.827575  0.134048 -0.545116
			 0.823372  0.211006 -0.526816
			 0.892115  0.222780 -0.393065
			 0.942226  0.236170 -0.237559
			 0.972572  0.232531 -0.005787
			 0.938594  0.229727  0.257423
			 0.936411  0.238430  0.257461
			 0.852040  0.053732 -0.520711
			 0.813950  0.061528 -0.577668
			 0.957864  0.059927 -0.280902
			 0.729872  0.065614 -0.680428
			 0.433909  0.103975 -0.894937
			 0.413408  0.092657 -0.905819
			 0.542522  0.115397 -0.832078
			 0.487338  0.081694 -0.869383
			 0.283953  0.078018 -0.955659
			 0.626839  0.045458 -0.777822
			 0.481548  0.027285 -0.875995
			 0.428972  0.056266 -0.901564
			 0.771918  0.069606  0.631899
			 0.699153  0.043657  0.713638
			 0.734663  0.075322  0.674238
			 0.694714  0.049365  0.717590
			 0.980573  0.039704 -0.192096
			 0.996621  0.066999  0.047523
			 0.765284  0.044077  0.642181
			 0.865456  0.041216  0.499287
			 0.911611  0.048891  0.408137
			 0.869732  0.029262  0.492656
			 0.956840  0.032091  0.288837
			 0.916011  0.034712  0.399649
			 0.505646  0.032220  0.862139
			 0.534433  0.051577  0.843636
			 0.424672  0.086887  0.901168
			 0.532862  0.108327  0.839240
			 0.565137  0.149112  0.811410
			 0.528547  0.105205  0.842360
			 0.569804  0.130924  0.811284
			 0.421626  0.093082  0.901980
			 0.643205  0.136075  0.753506
			 0.685016  0.181777  0.705486
			 0.777143  0.204569  0.595148
			 0.410624  0.089498 -0.907402
			 0.380435  0.074540 -0.921799
			 0.349755  0.064036 -0.934650
			 0.000650  0.027714 -0.999616
			-0.197145  0.006332 -0.980354
			 0.081403  0.045146 -0.995658
			 0.211284  0.068637 -0.975012
			 0.448390  0.093504 -0.888934
			 0.798632  0.110912 -0.591511
			 0.696510  0.147646 -0.702193
			 0.578480  0.129560 -0.805341
			 0.486922  0.120568 -0.865084
			 0.288369  0.069964 -0.954960
			 0.212831  0.043988 -0.976098
			 0.931930  0.082094 -0.353225
			 0.117840  0.028343 -0.992628
			-0.066495 -0.006498 -0.997766
			 0.718064  0.161196 -0.677052
			 0.744326  0.158614 -0.648707
			 0.719381  0.185630 -0.669353
			 0.835867  0.212883 -0.505971
			 0.806609  0.249661 -0.535772
			 0.892512  0.248798 -0.376194
			 0.965855  0.253026 -0.055692
			 0.929922  0.271400 -0.248166
			 0.916817  0.237773  0.320798
			 0.843811  0.191870  0.501168
			 0.846979  0.208406  0.489074
			 0.858175  0.057637 -0.510111
			 0.764116  0.086238 -0.639289
			 0.940901  0.041814 -0.336090
			 0.254593  0.068912 -0.964590
			 0.362208  0.098367 -0.926892
			 0.221496  0.094389 -0.970582
			-0.024563  0.055496 -0.998157
			 0.199433  0.098336 -0.974965
			 0.477258  0.066118 -0.876272
			-0.206511  0.029257 -0.978007
			-0.042130  0.059755 -0.997324
			 0.551251  0.095163 -0.828895
			 0.360724  0.097889 -0.927521
			 0.422175 -0.003604 -0.906507
			 0.660676  0.003457 -0.750663
			 0.779286  0.009168 -0.626601
			 0.333443  0.022102 -0.942511
			 0.301405  0.055359 -0.951888
			 0.619095  0.039702  0.784312
			 0.516944  0.032770  0.855391
			 0.571450  0.050909  0.819056
			 0.557549  0.005097  0.830128
			 0.930356  0.017637 -0.366232
			 0.947359  0.003073 -0.320158
			 0.999507  0.021248 -0.023118
			 0.771508  0.020267  0.635897
			 0.624024  0.008618  0.781357
			 0.725264  0.000152  0.688471
			 0.715825 -0.035885  0.697357
			 0.879618  0.014305  0.475466
			 0.985666 -0.024595  0.166906
			 0.848990 -0.036614  0.527138
			 0.878622 -0.055071  0.474331
			 0.388152  0.045931  0.920450
			 0.367897  0.042676  0.928887
			 0.156795  0.049573  0.986386
			 0.139952  0.068005  0.987820
			 0.566642  0.151278  0.809958
			 0.474974  0.109498  0.873161
			 0.295355  0.094071  0.950745
			 0.165948  0.038393  0.985387
			 0.531629  0.182496  0.827083
			 0.650597  0.175384  0.738894
			 0.768303  0.209040  0.604990
			-0.224461 -0.038762 -0.973712
			-0.435840 -0.063577 -0.897776
			-0.083837  0.035657 -0.995841
			-0.486311 -0.055229 -0.872039
			-0.397497 -0.024731 -0.917270
			-0.484010 -0.051566 -0.873542
			-0.271534 -0.008708 -0.962389
			 0.086353  0.065163 -0.994131
			 0.587173  0.152795 -0.794910
			 0.563572  0.138298 -0.814408
			 0.438700  0.093978 -0.893706
			-0.039991  0.018562 -0.999028
			 0.261329  0.074283 -0.962387
			-0.105926  0.017721 -0.994216
			-0.295611 -0.016070 -0.955173
			-0.328605 -0.052915 -0.942984
			 0.686226  0.153482 -0.711011
			 0.714530  0.189849 -0.673353
			 0.787361  0.140756 -0.600208
			 0.676922  0.168077 -0.716608
			 0.793454  0.201129 -0.574437
			 0.662669  0.148649 -0.734012
			 0.761073  0.233962 -0.605004
			 0.862945  0.224138 -0.452867
			 0.738060  0.227136 -0.635355
			 0.907026  0.239696 -0.346193
			 0.954343  0.289173 -0.074891
			 0.926029  0.304508  0.223036
			 0.904857  0.260589 -0.336641
			 0.936312  0.292146 -0.194860
			 0.951313  0.281491 -0.125567
			 0.768666  0.282943  0.573668
			 0.869578  0.290589  0.399239
			 0.899692  0.026270 -0.435733
			 0.134825  0.086325 -0.987102
			-0.285266  0.016440 -0.958307
			-0.072225  0.056977 -0.995760
			 0.799811  0.063457 -0.596888
			 0.871428  0.025739 -0.489849
			 0.894573  0.047134 -0.444430
			-0.238921  0.013288 -0.970948
			-0.453949  0.001560 -0.891026
			-0.528054 -0.041073 -0.848217
			-0.475534 -0.025593 -0.879325
			-0.275478  0.046056 -0.960203
			-0.322320  0.016290 -0.946491
			 0.477845 -0.042207 -0.877430
			 0.261593  0.009503 -0.965132
			 0.191605 -0.015477 -0.981350
			 0.352235 -0.047987 -0.934680
			 0.480916 -0.020698 -0.876522
			 0.857432  0.022468 -0.514107
			 0.841344  0.021490 -0.540073
			 0.700631 -0.031655 -0.712821
			 0.861281  0.006278 -0.508090
			 0.524216 -0.015953 -0.851436
			 0.398719  0.084066 -0.913212
			 0.057594  0.039669 -0.997552
			 0.180944  0.015950 -0.983364
			 0.432134  0.026575  0.901417
			 0.235457  0.016402  0.971746
			 0.962812 -0.018773 -0.269520
			 0.999939 -0.004765 -0.010008
			 0.438033 -0.015608  0.898824
			 0.536410 -0.078626  0.840287
			 0.737525 -0.085934  0.669830
			 0.622453 -0.110493  0.774819
			 0.764905 -0.025497  0.643638
			 0.954106 -0.088181  0.286193
			 0.974071 -0.049645  0.220728
			 0.893093 -0.061599  0.445635
			 0.837836 -0.103395  0.536042
			 0.022448  0.028597  0.999339
			-0.166754  0.057065  0.984346
			-0.167303  0.007065  0.985880
			-0.015182  0.039816  0.999092
			-0.126331  0.039065  0.991219
			 0.463669  0.169080  0.869726
			 0.390434  0.049469  0.919301
			 0.365529  0.098660  0.925556
			 0.351812  0.120909  0.928229
			 0.047017  0.056280  0.997307
			 0.293144  0.040539  0.955208
			-0.055594  0.066837  0.996214
			-0.017697  0.074968  0.997029
			 0.508229  0.181528  0.841873
			 0.392188  0.185301  0.901029
			 0.402369  0.165673  0.900362
			 0.408135  0.176402  0.895716
			 0.545484  0.211444  0.811011
			 0.656295  0.214955  0.723237
			-0.394537 -0.066544 -0.916468
			-0.619548 -0.080745 -0.780795
			-0.620299 -0.061577 -0.781945
			-0.280952  0.004103 -0.959713
			-0.430558 -0.020502 -0.902330
			-0.441399 -0.003093 -0.897305
			-0.749535 -0.093928 -0.655266
			-0.692109 -0.076873 -0.717688
			-0.627151 -0.051824 -0.777172
			 0.602934  0.137946 -0.785775
			 0.544298  0.124118 -0.829659
			 0.511429  0.136249 -0.848456
			 0.552874  0.117343 -0.824961
			 0.442665  0.093203 -0.891830
			 0.022634  0.049961 -0.998495
			-0.214821 -0.014041 -0.976553
			-0.355279 -0.027218 -0.934364
			-0.349828  0.024702 -0.936488
			 0.365374  0.101906 -0.925266
			-0.545922 -0.036906 -0.837023
			-0.461927 -0.027807 -0.886482
			-0.359894 -0.027429 -0.932590
			 0.948142  0.076820 -0.308425
			 0.773646  0.229581 -0.590563
			 0.682497  0.229011 -0.694084
			 0.762785  0.169988 -0.623910
			 0.916686  0.084628 -0.390544
			 0.562222  0.153735 -0.812571
			 0.528652  0.113489 -0.841218
			 0.738923  0.149108 -0.657084
			 0.838419  0.283702 -0.465367
			 0.944062  0.315355  0.096429
			 0.767092  0.343505  0.541825
			 0.850378  0.344830  0.397428
			 0.850183  0.331590  0.408947
			 0.908812  0.312721 -0.276162
			 0.881459  0.294125 -0.369487
			 0.940268  0.335452  0.058041
			 0.953014  0.302230  0.020528
			 0.940156  0.312000 -0.136977
			 0.593880  0.302943  0.745341
			-0.504585 -0.010790 -0.863294
			-0.254889  0.049213 -0.965717
			-0.437648  0.002441 -0.899143
			-0.355615  0.037379 -0.933885
			-0.690443 -0.055494 -0.721255
			-0.607434 -0.054433 -0.792503
			-0.692445 -0.082440 -0.716745
			-0.608756 -0.042305 -0.792229
			-0.459704  0.030143 -0.887560
			 0.204707  0.045378 -0.977771
			 0.110631  0.002925 -0.993857
			 0.160052 -0.046880 -0.985995
			 0.071708 -0.021512 -0.997194
			 0.547664 -0.060265 -0.834525
			 0.235143 -0.080637 -0.968610
			 0.374288 -0.092000 -0.922737
			 0.495847 -0.087892 -0.863951
			 0.528185 -0.067646 -0.846431
			 0.865687 -0.038044 -0.499137
			 0.725456 -0.065887 -0.685108
			 0.818044 -0.036353 -0.574006
			-0.241187  0.008283 -0.970443
			-0.037597  0.034031 -0.998713
			 0.151542  0.071733 -0.985845
			 0.104991 -0.010029  0.994423
			-0.088856  0.006367  0.996024
			 0.875091 -0.054926 -0.480832
			 0.972126 -0.054667 -0.227996
			 0.996225 -0.060987 -0.061777
			 0.993498 -0.086043  0.074548
			 0.371048 -0.021034  0.928375
			 0.243673 -0.007455  0.969829
			 0.386622 -0.091515  0.917686
			 0.415943 -0.146004  0.897593
			 0.313031 -0.109350  0.943427
			 0.578560 -0.167667  0.798221
			 0.732628 -0.205177  0.648967
			 0.924276 -0.043365  0.379255
			 0.917872 -0.049378  0.393792
			 0.950351 -0.124179  0.285329
			 0.865705 -0.049219  0.498129
			 0.884274 -0.055552  0.463651
			 0.840530 -0.191084  0.506948
			 0.903737 -0.143215  0.403421
			-0.293893  0.000031  0.955838
			-0.390168  0.007523  0.920713
			-0.328331  0.016573  0.944418
			-0.478419  0.016515  0.877976
			-0.349955 -0.017630  0.936600
			-0.291065  0.006869  0.956679
			 0.353320  0.148566  0.923630
			 0.144942  0.114930  0.982743
			 0.102292  0.024700  0.994448
			 0.318254  0.123010  0.939991
			-0.196951  0.025059  0.980093
			-0.192252  0.043117  0.980398
			-0.311103  0.035196  0.949724
			 0.407343  0.184318  0.894482
			 0.343913  0.146190  0.927552
			 0.297810  0.141328  0.944106
			 0.366410  0.183655  0.912148
			 0.205520  0.137146  0.968996
			 0.185379  0.145062  0.971901
			 0.394645  0.222562  0.891472
			 0.505266  0.285292  0.814441
			 0.973117 -0.020431 -0.229405
			 0.745732 -0.064153 -0.663150
			-0.533780 -0.084295 -0.841412
			-0.756648 -0.103077 -0.645647
			-0.530795 -0.031106 -0.846929
			-0.640706 -0.073914 -0.764220
			-0.511727 -0.009618 -0.859094
			-0.852743 -0.113466 -0.509858
			-0.795329 -0.122561 -0.593659
			-0.857600 -0.119869 -0.500154
			-0.840963 -0.095256 -0.532642
			-0.758662 -0.098393 -0.644011
			-0.735993 -0.086461 -0.671446
			-0.223048  0.050482 -0.973499
			-0.180364  0.039475 -0.982808
			 0.219366  0.113329 -0.969038
			-0.057713  0.104039 -0.992897
			-0.455965 -0.030007 -0.889492
			 0.340755  0.140952 -0.929526
			 0.434832  0.150286 -0.887882
			-0.753914 -0.085157 -0.651431
			-0.771588 -0.111598 -0.626258
			-0.647622 -0.056867 -0.759837
			-0.663220 -0.054180 -0.746461
			-0.598675 -0.045047 -0.799724
			 0.746830 -0.032473 -0.664222
			 0.916053  0.108777 -0.386023
			 0.772319  0.271807 -0.574147
			 0.629805  0.281631 -0.723899
			 0.624772  0.229094 -0.746442
			 0.652230  0.182576 -0.735706
			 0.692187  0.340039 -0.636592
			 0.678365  0.192811 -0.708974
			 0.406923  0.155202 -0.900181
			 0.618617  0.169867 -0.767110
			 0.595021  0.167507 -0.786061
			 0.662356  0.185058 -0.725974
			 0.820712  0.410594 -0.397297
			 0.877531  0.319833 -0.357277
			 0.691736  0.345675  0.634043
			 0.872352  0.357992  0.332931
			 0.781469  0.354441  0.513496
			 0.896360  0.392363 -0.206373
			 0.966404  0.221491  0.130407
			 0.957265  0.286609  0.038720
			 0.929983  0.278247  0.240230
			 0.936718  0.349726 -0.015834
			 0.714998  0.355843  0.601793
			 0.586342  0.328025  0.740677
			-0.483697 -0.043613 -0.874148
			-0.703751 -0.036179 -0.709525
			-0.612311 -0.038872 -0.789661
			-0.648999 -0.047279 -0.759319
			-0.830237 -0.099673 -0.548426
			-0.756308 -0.089927 -0.648006
			-0.806454 -0.087576 -0.584776
			 0.129947  0.045515 -0.990476
			 0.071261 -0.000473 -0.997458
			 0.126244 -0.106913 -0.986221
			 0.050531 -0.033635 -0.998156
			 0.319474 -0.164542 -0.933200
			 0.448714 -0.091001 -0.889030
			 0.722376 -0.121464 -0.680749
			 0.617010 -0.155789 -0.771381
			 0.871227 -0.106906 -0.479098
			-0.287885 -0.004621 -0.957654
			-0.157436  0.045384 -0.986486
			-0.023387  0.009468 -0.999682
			-0.232928 -0.010779  0.972434
			 0.093211 -0.033944  0.995068
			-0.356634 -0.029862  0.933767
			 0.989130 -0.138090 -0.050529
			 0.959312 -0.129837 -0.250726
			 0.985183 -0.170923  0.014169
			 0.035522 -0.201812  0.978780
			 0.295822 -0.222272  0.929023
			 0.006678 -0.091963  0.995740
			 0.451374 -0.244253  0.858255
			 0.595952 -0.258734  0.760196
			 0.642822 -0.204151  0.738311
			 0.539813 -0.265471  0.798829
			 0.905656 -0.213104  0.366572
			 0.894248 -0.317945  0.315010
			 0.931273 -0.319854  0.174422
			 0.844876 -0.189501  0.500273
			-0.565090 -0.026707  0.824597
			-0.651118 -0.020506  0.758700
			-0.559471 -0.009589  0.828794
			-0.713203 -0.014690  0.700804
			-0.151662  0.130807  0.979739
			-0.167522  0.094641  0.981315
			-0.324800  0.043098  0.944800
			-0.371247  0.017054  0.928377
			-0.431720  0.019077  0.901806
			-0.347174  0.046530  0.936646
			-0.541522  0.015507  0.840543
			 0.324516  0.168927  0.930673
			 0.316126  0.150179  0.936755
			 0.107241  0.106772  0.988483
			 0.013116  0.115528  0.993218
			 0.046659  0.131939  0.990159
			-0.158107  0.094505  0.982889
			 0.392394  0.246662  0.886107
			 0.296124  0.186494  0.936766
			 0.119574  0.161729  0.979564
			 0.461656  0.337817  0.820215
			 0.669838 -0.051012 -0.740753
			-0.714021 -0.069807 -0.696635
			-0.863907 -0.106389 -0.492286
			-0.710684 -0.079818 -0.698969
			-0.874511 -0.127928 -0.467831
			-0.916706 -0.100525 -0.386710
			-0.909481 -0.106547 -0.401861
			-0.908645 -0.101353 -0.405083
			-0.897589 -0.115731 -0.425371
			-0.911675 -0.111935 -0.395371
			-0.963573 -0.094709 -0.250113
			-0.901720 -0.093830 -0.422015
			-0.823933 -0.097600 -0.558219
			-0.254669  0.015105 -0.966910
			-0.457064 -0.018912 -0.889232
			-0.402957  0.080826 -0.911643
			-0.393867 -0.012522 -0.919082
			 0.260579  0.131874 -0.956404
			-0.355034  0.147046 -0.923216
			 0.170714  0.205653 -0.963620
			-0.132839  0.215352 -0.967459
			-0.840528 -0.124284 -0.527320
			-0.721986 -0.084412 -0.686740
			-0.778640 -0.057166 -0.624862
			-0.725409 -0.087504 -0.682733
			-0.750507 -0.123642 -0.649193
			-0.838604 -0.063603 -0.541016
			-0.792476 -0.064031 -0.606533
			-0.734572 -0.061083 -0.675775
			-0.456835 -0.050900 -0.888094
			-0.624483  0.006541 -0.781011
			 0.528360  0.241352 -0.813994
			 0.540110  0.275307 -0.795291
			 0.599422  0.213848 -0.771338
			 0.671251  0.434867 -0.600260
			 0.604892  0.333433 -0.723138
			 0.444759  0.173643 -0.878657
			 0.840519  0.483739 -0.243976
			 0.863641  0.491812 -0.110657
			 0.774936  0.519047 -0.360644
			 0.803876  0.307939  0.508878
			 0.882329  0.456375 -0.114968
			 0.913408  0.406642 -0.018087
			 0.933933  0.336058  0.121793
			 0.897828  0.281600  0.338537
			 0.922206  0.216580  0.320358
			 0.831978  0.250809  0.494881
			 0.924814  0.373251  0.073501
			 0.694924  0.312229  0.647760
			-0.764347 -0.018816 -0.644531
			-0.625717 -0.037337 -0.779156
			-0.369493 -0.023338 -0.928940
			-0.853826 -0.066326 -0.516315
			-0.764654 -0.034254 -0.643530
			-0.894177 -0.046777 -0.445263
			-0.865378 -0.105243 -0.489945
			-0.914027 -0.100273 -0.393065
			-0.900168 -0.107441 -0.422082
			-0.904544 -0.089846 -0.416807
			-0.935406 -0.080111 -0.344381
			-0.934798 -0.096834 -0.341726
			-0.933543 -0.100391 -0.344119
			 0.055184 -0.099584 -0.993498
			-0.024842 -0.289023 -0.957000
			 0.009528 -0.188129 -0.982098
			 0.157319 -0.245704 -0.956494
			-0.010162 -0.018547 -0.999776
			 0.070371 -0.128756 -0.989176
			-0.072525 -0.087258 -0.993542
			-0.065458 -0.034298 -0.997266
			 0.401615 -0.232903 -0.885699
			 0.542870 -0.187582 -0.818600
			 0.896208 -0.140692 -0.420735
			 0.869776 -0.174299 -0.461639
			 0.693476 -0.163263 -0.701738
			-0.274620 -0.052677 -0.960109
			-0.093559 -0.041646 -0.994742
			-0.492705 -0.015228  0.870063
			-0.599757 -0.058861  0.798014
			-0.386692 -0.063326  0.920032
			-0.216981 -0.037046  0.975473
			-0.144371 -0.023409  0.989247
			-0.566232 -0.045657  0.822980
			 0.956412 -0.279701 -0.083929
			 0.937571 -0.213390 -0.274636
			 0.952598 -0.276147 -0.127670
			 0.936704 -0.347222 -0.044968
			 0.151486 -0.283017  0.947076
			-0.121352 -0.334962  0.934384
			-0.274057 -0.302045  0.913051
			-0.105569 -0.151639  0.982782
			-0.195147 -0.216111  0.956668
			-0.194747 -0.050232  0.979566
			-0.169014 -0.090705  0.981431
			 0.125694 -0.335517  0.933611
			 0.383803 -0.285917  0.878036
			 0.465891 -0.265761  0.843989
			 0.463761 -0.124930  0.877108
			 0.667486 -0.126907  0.733728
			 0.813684 -0.261799  0.519018
			 0.805556 -0.490504  0.332393
			 0.904394 -0.426679  0.003964
			 0.843101 -0.486363  0.229417
			-0.792555 -0.035031  0.608793
			-0.706914 -0.034394  0.706463
			-0.818898 -0.028750  0.573218
			-0.686469 -0.013476  0.727035
			-0.768478 -0.033325  0.639008
			-0.794878 -0.036419  0.605676
			-0.224756  0.090271  0.970225
			-0.436462  0.034709  0.899053
			-0.391901  0.050818  0.918603
			-0.273407  0.035763  0.961233
			-0.477092  0.035489  0.878136
			-0.551647  0.001641  0.834076
			-0.664940  0.005954  0.746873
			-0.680228 -0.006876  0.732968
			-0.654643  0.014427  0.755800
			-0.111411  0.084437  0.990181
			-0.241915  0.061987  0.968316
			-0.307101  0.089608  0.947449
			-0.326444  0.081553  0.941692
			 0.241790  0.185485  0.952435
			 0.260140  0.273664  0.925978
			-0.169927  0.135757  0.976061
			-0.133236  0.091573  0.986845
			 0.062403  0.124783  0.990220
			-0.158392  0.115415  0.980608
			 0.295715  0.428719  0.853670
			 0.550715  0.415175  0.724115
			 0.281983  0.330342  0.900755
			 0.194145  0.402520  0.894587
			-0.785950 -0.075069 -0.613716
			-0.868061 -0.075520 -0.490680
			-0.899742 -0.109387 -0.422492
			-0.862683 -0.093463 -0.497035
			-0.878974 -0.114645 -0.462883
			-0.981638 -0.108473 -0.156906
			-0.990270 -0.107847 -0.087945
			-0.854834 -0.104247 -0.508323
			-0.890957 -0.106969 -0.441310
			-0.935934 -0.127437 -0.328310
			-0.966801 -0.095764 -0.236909
			-0.916476 -0.107968 -0.385246
			-0.963217 -0.081099 -0.256197
			-0.970760 -0.117210 -0.209492
			-0.986302 -0.080351  0.144055
			-0.994684 -0.089715  0.050536
			-0.994292 -0.061494  0.087189
			-0.907334 -0.133637 -0.398606
			-0.564942  0.065154 -0.822554
			-0.620792  0.048721 -0.782460
			-0.566138  0.115625 -0.816161
			-0.327909  0.183279 -0.926760
			 0.323190  0.272800 -0.906162
			 0.049994  0.265723 -0.962752
			-0.252603  0.192714 -0.948184
			-0.830452 -0.106651 -0.546786
			-0.887132 -0.114243 -0.447153
			-0.876240 -0.101206 -0.471126
			-0.913464 -0.133089 -0.384540
			-0.897730 -0.130866 -0.420661
			-0.866876 -0.127280 -0.482003
			-0.845013 -0.086947 -0.527629
			-0.767779 -0.086451 -0.634856
			-0.781725 -0.039773 -0.622354
			-0.813920 -0.057419 -0.578132
			-0.804238 -0.081007 -0.588761
			-0.888385 -0.061889 -0.454908
			 0.409069  0.169422 -0.896637
			 0.530956  0.121370 -0.838662
			 0.422961  0.155646 -0.892681
			 0.574227  0.294309 -0.763967
			 0.689802  0.091019 -0.718254
			 0.678013  0.240493 -0.694594
			 0.493641  0.263320 -0.828843
			 0.537049  0.341333 -0.771408
			 0.659671  0.472916 -0.584111
			 0.443770  0.323510 -0.835709
			 0.717848  0.497254 -0.487271
			 0.904201  0.416418  0.094952
			 0.860773  0.505106 -0.062746
			 0.914854  0.402135  0.036457
			 0.752140  0.489942 -0.440730
			 0.846308  0.497092 -0.191473
			 0.897975  0.357035  0.257229
			 0.839886  0.318536  0.439460
			 0.830297  0.280434  0.481625
			 0.782237  0.319906  0.534571
			-0.809992 -0.022787 -0.585997
			-0.926319 -0.016114 -0.376394
			-0.942707  0.007403 -0.333540
			-0.913583 -0.015597 -0.406354
			-0.629466 -0.038153 -0.776091
			-0.706354 -0.015237 -0.707695
			-0.519729 -0.023851 -0.853998
			-0.955278 -0.052090 -0.291085
			-0.924342 -0.128289 -0.359353
			-0.949637 -0.083515 -0.302017
			-0.994341 -0.063714 -0.085007
			-0.987928 -0.047820 -0.147348
			 0.036911 -0.351841 -0.935332
			 0.007230 -0.351211 -0.936268
			-0.097028 -0.350272 -0.931609
			 0.210567 -0.271021 -0.939260
			 0.152866 -0.234935 -0.959915
			 0.130081 -0.259209 -0.957021
			 0.332499 -0.266362 -0.904708
			 0.104722 -0.210200 -0.972034
			-0.393066 -0.083847 -0.915679
			-0.341184 -0.049596 -0.938687
			-0.431351 -0.195057 -0.880846
			-0.122120 -0.205337 -0.971042
			-0.405975 -0.063534 -0.911673
			 0.672132 -0.118635 -0.730865
			 0.621729 -0.176872 -0.763001
			 0.655838 -0.106996 -0.747281
			 0.907406 -0.158614 -0.389174
			 0.767351 -0.110215 -0.631684
			-0.539958 -0.043219 -0.840581
			-0.412349 -0.067251  0.908540
			-0.595623 -0.085542  0.798696
			-0.798094 -0.063627  0.599164
			-0.771512 -0.077932  0.631424
			-0.804261 -0.059489  0.591291
			-0.382166 -0.061368  0.922054
			-0.392486 -0.054732  0.918128
			 0.942226 -0.286159 -0.174137
			 0.912711 -0.350887 -0.209371
			 0.933590 -0.319594 -0.162081
			 0.912508 -0.394767 -0.107180
			 0.851557 -0.193931 -0.487073
			 0.819475 -0.110581 -0.562346
			 0.827487 -0.146180 -0.542123
			 0.903703 -0.399072 -0.155121
			 0.886856 -0.429634 -0.170001
			 0.905041 -0.364216 -0.219655
			 0.922242 -0.374973 -0.094150
			-0.205359 -0.333988  0.919935
			-0.326213 -0.256614  0.909799
			-0.290751 -0.139147  0.946627
			-0.267659 -0.054088  0.961994
			-0.388424 -0.062697  0.919346
			 0.157066 -0.357851  0.920474
			 0.309083 -0.225296  0.923964
			 0.481714 -0.087949  0.871904
			 0.457794 -0.170392  0.872577
			 0.458560 -0.122468  0.880184
			 0.623947 -0.200911  0.755198
			 0.657661 -0.383795  0.648215
			 0.732805 -0.500807  0.460640
			 0.817553 -0.470833  0.331547
			 0.886893 -0.460780  0.033205
			 0.877308 -0.379042  0.294377
			-0.937606 -0.056452  0.343087
			-0.844676 -0.058874  0.532031
			-0.895664 -0.055019  0.441314
			-0.765901 -0.017386  0.642723
			-0.868687 -0.062269  0.491431
			 0.518676  0.047536  0.853648
			-0.259153  0.031529  0.965321
			-0.351369  0.074173  0.933294
			-0.587821  0.016643  0.808820
			-0.762328 -0.018765  0.646919
			-0.884713 -0.051038  0.463334
			-0.754468 -0.023293  0.655924
			-0.250576  0.080230  0.964767
			-0.367458  0.056023  0.928351
			-0.411867  0.046309  0.910067
			-0.325896  0.087105  0.941384
			 0.133889  0.195974  0.971426
			 0.137948  0.167467  0.976179
			 0.030964  0.148165  0.988478
			-0.012322  0.241929  0.970216
			 0.015255  0.326872  0.944945
			-0.258718  0.069418  0.963455
			-0.115213  0.138793  0.983597
			-0.271631  0.114975  0.955509
			 0.399117  0.487553  0.776529
			 0.123905  0.490214  0.862750
			 0.629213  0.448365  0.634870
			 0.741936  0.389520  0.545715
			-0.029699  0.377102  0.925695
			-0.901489 -0.091407 -0.423039
			-0.834073 -0.126092 -0.537050
			-0.892613 -0.123961 -0.433446
			-0.941826 -0.044976  0.333077
			-0.948300 -0.157662 -0.275445
			-0.992130 -0.123941 -0.017824
			-0.994345 -0.070984  0.078990
			-0.992575 -0.086111  0.085903
			-0.888302 -0.123401 -0.442370
			-0.854738 -0.149557 -0.497047
			-0.912382 -0.155867 -0.378503
			-0.990205 -0.073850  0.118489
			-0.992705 -0.072285  0.096496
			-0.996439 -0.081599  0.021231
			-0.947615 -0.082129  0.308674
			-0.731520  0.015507 -0.681644
			-0.515318  0.155629 -0.842750
			-0.744460  0.087759 -0.661875
			 0.259248  0.311104 -0.914333
			-0.107206  0.213729 -0.970993
			-0.296340  0.091732 -0.950667
			-0.404825  0.100829 -0.908818
			-0.475018  0.135851 -0.869426
			-0.816635 -0.109376 -0.566695
			-0.809715 -0.098305 -0.578530
			-0.887372 -0.102067 -0.449614
			-0.906119 -0.088548 -0.413652
			-0.912549 -0.108005 -0.394448
			-0.883872 -0.097794 -0.457390
			-0.902927 -0.127334 -0.410497
			-0.896076 -0.169267 -0.410361
			-0.875567 -0.157408 -0.456733
			-0.899591 -0.152694 -0.409170
			-0.848254 -0.157651 -0.505580
			-0.873056 -0.119703 -0.472699
			-0.847641 -0.020824 -0.530161
			-0.785195 -0.073566 -0.614864
			 0.382663 -0.020059 -0.923670
			 0.366326  0.162846 -0.916126
			 0.485959  0.054813 -0.872261
			 0.315491  0.019915 -0.948720
			 0.282971  0.200703 -0.937894
			 0.153536  0.122306 -0.980545
			 0.680853  0.260152 -0.684661
			 0.688477 -0.063336 -0.722488
			 0.652226  0.065436 -0.755195
			 0.677135  0.131915 -0.723938
			 0.596837  0.153645 -0.787514
			 0.670252 -0.092144 -0.736391
			 0.513999  0.318513 -0.796464
			 0.356067  0.275325 -0.892980
			 0.472886  0.456983 -0.753356
			 0.650264  0.519356 -0.554460
			 0.775777  0.513186 -0.367164
			 0.752539  0.494885 -0.434482
			 0.094826  0.279037 -0.955587
			 0.293462  0.374630 -0.879507
			 0.906013  0.418366  0.064114
			 0.928006  0.328811  0.175180
			 0.865547  0.469883 -0.173314
			 0.859659  0.404918  0.311494
			 0.868549  0.386987  0.309618
			 0.870960  0.407205  0.274978
			 0.913012  0.333906  0.234341