<?xml version="1.0"?>
<VTKFile type="PolyData" version="0.1" byte_order="LittleEndian" compressor="vtkZLibDataCompressor">
	<PolyData>
		<Piece NumberOfPoints="1111" NumberOfVerts="0" NumberOfLines="0" NumberOfStrips="0" NumberOfPolys="2218">
		<PointData Normals="Normals">
		<DataArray type="Float32" Name="Normals" NumberOfComponents="3" format="ascii">
			-0.743230 -0.602825  0.290193
			-0.635020 -0.596338  0.491050
			-0.811278 -0.485245  0.326136
			-0.853282 -0.500696  0.145648
			-0.512475 -0.722351  0.464303
			-0.670454 -0.709989  0.215425
			-0.394062 -0.843114  0.365888
			-0.647291 -0.549717  0.528040
			-0.403585 -0.592117  0.697507
			-0.379230 -0.596843  0.707080
			-0.927023 -0.350884  0.132322
			-0.743081 -0.290328  0.602943
			-0.910246 -0.266122  0.317224
			-0.869000 -0.486782  0.088776
			-0.183042 -0.772289  0.608329
			-0.083111 -0.873451  0.479768
			-0.731928 -0.680062  0.042386
			-0.219295 -0.937007  0.271896
			-0.411542 -0.905016  0.107602
			 0.036543 -0.927141  0.372926
			-0.504825 -0.514634  0.693039
			-0.235999 -0.614389  0.752881
			-0.145211 -0.662191  0.735131
			-0.030941 -0.681109  0.731528
			-0.920848 -0.389377  0.020636
			-0.973789 -0.225918  0.026388
			-0.986829 -0.125391  0.102203
			-0.464861 -0.363179  0.807468
			-0.524855 -0.216809  0.823117
			-0.717009 -0.027443  0.696523
			-0.921692 -0.050591  0.384609
			-0.805195 -0.592303 -0.028961
			 0.201203 -0.777378  0.595987
			 0.301992 -0.816554  0.491975
			-0.509388 -0.856072 -0.087543
			 0.151433 -0.954380  0.257348
			-0.023146 -0.988054  0.152363
			-0.150238 -0.988569 -0.012638
			 0.397854 -0.839678  0.369665
			-0.270948 -0.560983  0.782231
			 0.241815 -0.680855  0.691348
			 0.037621 -0.671906  0.739680
			-0.965313 -0.258283 -0.038213
			-0.903902 -0.420618 -0.077732
			-0.799685 -0.599298 -0.036691
			-0.997709 -0.032840 -0.059139
			-0.987562  0.107784  0.114470
			-0.086508 -0.485189  0.870119
			-0.192597 -0.295903  0.935600
			-0.400286 -0.092089  0.911751
			-0.872967  0.125433  0.471375
			-0.631189  0.012235  0.775533
			-0.658682 -0.739987 -0.136227
			 0.469184 -0.628739  0.620123
			 0.547823 -0.654158  0.521505
			-0.358071 -0.912364 -0.198437
			-0.066227 -0.990038 -0.124252
			 0.234500 -0.963867  0.126376
			 0.476748 -0.858707  0.187971
			 0.176279 -0.984219 -0.015462
			 0.704061 -0.656646  0.270395
			 0.322740 -0.518065  0.792116
			-0.887545 -0.395630 -0.236095
			-0.988378 -0.121462 -0.091415
			-0.709241 -0.695864 -0.112921
			-0.825741 -0.531447 -0.188989
			-0.557393 -0.818486 -0.139259
			-0.992311  0.109605  0.057501
			-0.999230 -0.016666 -0.035530
			-0.941098  0.237169  0.241008
			 0.204401 -0.364664  0.908427
			-0.023321 -0.125048  0.991877
			 0.209971 -0.269358  0.939872
			-0.185567  0.006320  0.982611
			-0.842227  0.142514  0.519945
			-0.482905  0.032617  0.875065
			-0.809936  0.110405  0.576033
			-0.721692  0.068278  0.688839
			 0.581509 -0.426219  0.692954
			 0.702078 -0.411271  0.581329
			 0.719907 -0.530004  0.448141
			-0.185933 -0.940006 -0.286040
			 0.091746 -0.957316 -0.274096
			 0.255704 -0.956221 -0.142329
			 0.442734 -0.895838  0.038216
			 0.671863 -0.738248  0.059905
			 0.515891 -0.853719 -0.070855
			 0.846418 -0.452940  0.280038
			 0.913049 -0.395988  0.097645
			 0.808416 -0.588608 -0.002069
			 0.484146 -0.290890  0.825219
			-0.729384 -0.616117 -0.297320
			-0.731770 -0.502955 -0.459945
			-0.684191 -0.610827 -0.398464
			-0.937140 -0.233010 -0.259759
			-0.810990 -0.365280 -0.457019
			-0.983271 -0.082815 -0.162234
			-0.580129 -0.779692 -0.235648
			-0.358537 -0.911408 -0.201958
			-0.981795  0.026440  0.188097
			-0.944235  0.098485  0.314200
			-0.909239  0.221743  0.352299
			-0.995767 -0.081436  0.042623
			 0.315326 -0.125810  0.940607
			 0.249731  0.002181  0.968313
			-0.278358  0.120799  0.952851
			 0.102177  0.063888  0.992713
			-0.790666  0.137086  0.596703
			-0.608143  0.159153  0.777710
			-0.867465  0.152149  0.473661
			 0.710050 -0.272490  0.649291
			 0.822553 -0.365731  0.435486
			 0.864143 -0.185457  0.467828
			 0.863791 -0.270579  0.425031
			-0.030867 -0.951113 -0.307298
			 0.213887 -0.928438 -0.303737
			 0.371330 -0.881172 -0.292660
			 0.421619 -0.799040 -0.428687
			 0.718112 -0.692183 -0.072097
			 0.619667 -0.741211 -0.258106
			 0.922806 -0.303506  0.237306
			 0.935010 -0.354406  0.012360
			 0.956532 -0.217134  0.194680
			 0.952262 -0.295766  0.075631
			 0.859301 -0.502586 -0.094915
			 0.764636 -0.596145 -0.244832
			 0.528892 -0.098306  0.842976
			-0.428822 -0.800589 -0.418531
			-0.536878 -0.711596 -0.453203
			-0.437962 -0.676265 -0.592330
			-0.592908 -0.514059 -0.619841
			-0.885798 -0.192479 -0.422273
			-0.642920 -0.433656 -0.631346
			-0.994387 -0.101445 -0.030040
			-0.989778 -0.038009 -0.137460
			-0.931294 -0.031090 -0.362939
			-0.905546 -0.079489 -0.416736
			-0.167053 -0.941844 -0.291588
			-0.922823  0.057237  0.380949
			-0.991617 -0.062516  0.113082
			-0.905788  0.191654  0.377911
			-0.992724 -0.086720 -0.083537
			 0.644991 -0.042816  0.762990
			 0.404175 -0.008740  0.914640
			-0.088120  0.136667  0.986690
			-0.634582  0.219196  0.741120
			-0.532194  0.239199  0.812129
			 0.229420 -0.000049  0.973328
			-0.174638  0.142639  0.974246
			-0.015662  0.127578  0.991705
			-0.822625  0.224815  0.522252
			 0.751942 -0.144006  0.643308
			 0.845582 -0.043114  0.532101
			 0.921961 -0.116947  0.369204
			 0.211084 -0.899352 -0.382896
			 0.334380 -0.726614 -0.600186
			 0.639739 -0.587424 -0.495648
			 0.621328 -0.671394 -0.403957
			 0.932365 -0.360377 -0.028698
			 0.954774 -0.282368 -0.093138
			 0.954470 -0.296929  0.028653
			 0.972463 -0.219473  0.078405
			 0.966725 -0.096688  0.236841
			 0.872649 -0.430850 -0.229895
			-0.274290 -0.756396 -0.593826
			-0.009854 -0.830425 -0.557043
			-0.095673 -0.736935 -0.669159
			-0.338145 -0.618248 -0.709526
			-0.828789 -0.106779 -0.549279
			-0.651517 -0.368783 -0.662967
			-0.379401 -0.576802 -0.723433
			-0.978584 -0.095647 -0.182276
			-0.988165 -0.069568 -0.136713
			-0.823932 -0.044632 -0.564928
			-0.731399 -0.043813 -0.680541
			-0.731000 -0.165862 -0.661913
			-0.891412 -0.176269 -0.417510
			-0.798682  0.273856  0.535827
			-0.966928 -0.029691  0.253315
			-0.883791  0.078354  0.461275
			-0.812769  0.223943  0.537825
			-0.994475 -0.065200  0.082266
			 0.610914  0.000852  0.791697
			-0.272849  0.209453  0.938980
			-0.597963  0.272446  0.753799
			 0.444563  0.003977  0.895739
			 0.052500  0.062656  0.996653
			-0.217849  0.245939  0.944487
			 0.814041  0.011435  0.580695
			 0.942142  0.001331  0.335211
			 0.171873 -0.722654 -0.669500
			 0.357124 -0.638127 -0.682097
			 0.529706 -0.617184 -0.581804
			 0.866160 -0.386237 -0.317155
			 0.770187 -0.470477 -0.430654
			 0.697389 -0.479928 -0.532275
			 0.967916 -0.251257 -0.003069
			 0.936515 -0.217035 -0.275384
			 0.977955 -0.195718 -0.072787
			 0.982879 -0.117497 -0.141925
			 0.990179 -0.138202  0.021108
			 0.991678 -0.043861  0.121038
			-0.080903 -0.709130 -0.700421
			-0.679756 -0.191567 -0.707979
			-0.325110 -0.549900 -0.769359
			-0.516158 -0.398801 -0.757983
			-0.173451 -0.618662 -0.766271
			-0.996759 -0.076882  0.023683
			-0.999071 -0.040524  0.014652
			-0.988466 -0.094910 -0.118013
			-0.701791 -0.146449 -0.697167
			-0.662254 -0.074056 -0.745611
			-0.545944 -0.084843 -0.833515
			-0.581964  0.023646 -0.812871
			-0.468912 -0.022148 -0.882967
			-0.670528 -0.057002 -0.739691
			-0.584316 -0.138374 -0.799642
			-0.702920 -0.206107 -0.680752
			-0.547628 -0.179744 -0.817187
			-0.895602 -0.177527 -0.407899
			-0.981446  0.007079  0.191608
			-0.992298 -0.038755  0.117659
			-0.796924  0.166842  0.580582
			-0.788333  0.101040  0.606895
			-0.938643  0.052422  0.340883
			-0.804590  0.228307  0.548188
			 0.707794  0.034084  0.705596
			-0.518357  0.308092  0.797738
			-0.726803  0.294049  0.620719
			 0.185878  0.130506  0.973867
			 0.517055  0.100172  0.850070
			 0.215635  0.262111  0.940638
			-0.382342  0.363217  0.849640
			-0.140674  0.416146  0.898351
			 0.801807  0.059381  0.594625
			 0.965932  0.136050  0.220150
			 0.996618 -0.004729  0.082032
			 0.995620  0.051197  0.078223
			 0.037514 -0.635817 -0.770928
			 0.536470 -0.507077 -0.674591
			 0.312947 -0.521596 -0.793727
			 0.075936 -0.530295 -0.844406
			 0.851838 -0.332994 -0.404335
			 0.781933 -0.296080 -0.548559
			 0.972007 -0.090895 -0.216660
			 0.998127 -0.009319 -0.060470
			 0.995635  0.014021 -0.092273
			-0.386985 -0.336809 -0.858372
			-0.205680 -0.502397 -0.839817
			-0.989159 -0.008729  0.146587
			-0.996876 -0.059215 -0.052263
			-0.901065 -0.130609 -0.413549
			-0.566023 -0.208497 -0.797589
			-0.475119 -0.203430 -0.856083
			-0.413703 -0.195421 -0.889191
			-0.473462 -0.082702 -0.876923
			-0.282453 -0.189081 -0.940462
			-0.303416 -0.177171 -0.936242
			-0.313623  0.008156 -0.949513
			-0.377391  0.169018 -0.910499
			-0.325082  0.162129 -0.931684
			-0.060214 -0.030884 -0.997708
			-0.340689 -0.205975 -0.917336
			-0.093244  0.194855 -0.976390
			-0.761913 -0.179032 -0.622443
			-0.568638 -0.232463 -0.789057
			-0.666897  0.138006  0.732258
			-0.787914  0.173369  0.590876
			-0.597573  0.117668  0.793134
			-0.934946  0.045494  0.351861
			-0.832682  0.069782  0.549336
			-0.520556  0.234840  0.820897
			-0.494161  0.379969  0.781939
			 0.557405  0.177641  0.811014
			 0.275249  0.340468  0.899066
			 0.066143  0.459987  0.885459
			-0.007319  0.513136  0.858276
			-0.104303  0.444969  0.889451
			 0.864866  0.157079  0.476794
			 0.673268  0.235854  0.700773
			 0.992089  0.098083 -0.078353
			 0.913336  0.243577  0.326323
			 0.995775  0.077717 -0.048920
			 0.980967  0.134461  0.140083
			 0.868719  0.331597  0.367928
			 0.796972  0.267671  0.541467
			 0.993672  0.086890 -0.071179
			 0.991015  0.111339 -0.074112
			 0.326635 -0.467424 -0.821477
			-0.023860 -0.439267 -0.898040
			 0.381564 -0.375179 -0.844778
			 0.586285 -0.246333 -0.771745
			 0.956243 -0.113157 -0.269804
			 0.472275 -0.245425 -0.846595
			 0.780676 -0.125880 -0.612127
			 0.896794 -0.141674 -0.419153
			 0.996393  0.064245 -0.055448
			 0.994282  0.098250 -0.041835
			-0.326322 -0.330102 -0.885746
			-0.988281 -0.013907  0.152009
			-0.973566 -0.074993 -0.215742
			-0.988506 -0.072006 -0.132933
			-0.996491 -0.028553  0.078678
			-0.971641 -0.066510 -0.226913
			-0.888606 -0.161473 -0.429309
			-0.751865 -0.174716 -0.635747
			-0.723740 -0.205596 -0.658735
			-0.288488 -0.343359 -0.893801
			-0.079008 -0.321753 -0.943521
			-0.105393 -0.148361 -0.983301
			-0.268520 -0.063577 -0.961174
			-0.175174 -0.220780 -0.959464
			 0.016144 -0.239677 -0.970719
			-0.132983  0.039113 -0.990346
			-0.077375  0.246571 -0.966031
			-0.185636  0.164974 -0.968671
			 0.001977 -0.234639 -0.972081
			 0.196538 -0.131984 -0.971573
			 0.187010  0.052088 -0.980976
			-0.332957 -0.275921 -0.901669
			 0.272554  0.280238 -0.920424
			 0.235480  0.232778 -0.943591
			-0.623975 -0.224885 -0.748386
			-0.240682  0.168374  0.955888
			-0.470023  0.132467  0.872657
			-0.664454  0.098172  0.740853
			-0.913641  0.047394  0.403750
			-0.965976  0.005280  0.258577
			-0.871884  0.066250  0.485210
			-0.364411  0.345229  0.864882
			-0.326625  0.284054  0.901459
			-0.225300  0.245194  0.942932
			 0.342121  0.441558  0.829445
			 0.266630  0.564615  0.781101
			 0.275483  0.472249  0.837311
			-0.014231  0.316192  0.948589
			 0.264707  0.348917  0.898992
			 0.804875  0.316439  0.502039
			 0.656010  0.434315  0.617269
			 0.990134  0.129823 -0.052729
			 0.999438 -0.003074 -0.033381
			 0.997003  0.020438  0.074621
			 0.899517  0.093888  0.426678
			 0.544869  0.503972  0.670172
			 0.531794  0.347466  0.772310
			 0.421857  0.255332  0.869967
			 0.550267  0.138714  0.823386
			 0.767706  0.118455  0.629759
			 0.078663 -0.277584 -0.957476
			 0.357941 -0.257627 -0.897500
			 0.350221 -0.248958 -0.902976
			 0.942498 -0.022643 -0.333445
			 0.347682 -0.245768 -0.904829
			 0.374687 -0.181605 -0.909191
			 0.331879 -0.189521 -0.924088
			 0.648046 -0.141054 -0.748426
			 0.884685 -0.011321 -0.466052
			 0.759572  0.011340 -0.650324
			 0.539472 -0.043004 -0.840905
			 0.973955  0.100153 -0.203423
			 0.996246  0.046497 -0.073017
			-0.977851 -0.051956 -0.202750
			-0.994833 -0.047841  0.089546
			-0.935619 -0.155189 -0.317070
			-0.987886 -0.107034 -0.112362
			-0.729883 -0.276507 -0.625152
			-0.620174 -0.249468 -0.743741
			 0.169723 -0.015343 -0.985372
			 0.074876  0.111550 -0.990934
			 0.412117  0.142377 -0.899938
			-0.222826 -0.349816 -0.909933
			 0.136982 -0.352378 -0.925778
			 0.380652 -0.257102 -0.888258
			 0.432802 -0.096229 -0.896338
			 0.485613  0.148544 -0.861461
			-0.536238 -0.282364 -0.795436
			 0.661182  0.182509 -0.727687
			 0.563428  0.262989 -0.783189
			 0.109965  0.140463  0.983960
			 0.144029 -0.007184  0.989547
			 0.123765  0.223305  0.966859
			-0.330672  0.032867  0.943173
			-0.576358  0.033572  0.816507
			-0.812147  0.018517  0.583159
			-0.949967 -0.064846  0.305544
			 0.335707  0.361079  0.870013
			 0.242165  0.280185  0.928899
			 0.988910 -0.117691  0.090587
			 0.996196 -0.049567 -0.071672
			 0.994916 -0.099508 -0.015465
			 0.953537 -0.030253  0.299754
			 0.779932  0.021032  0.625511
			 0.691427  0.093968  0.716309
			 0.310341  0.130287  0.941655
			 0.459635  0.091553  0.883376
			 0.824906  0.098872 -0.556555
			 0.901747  0.107528 -0.418678
			 0.965271  0.057930 -0.254748
			 0.928358  0.071807 -0.364685
			 0.964949 -0.060460 -0.255379
			-0.982160 -0.148846  0.114923
			-0.961522 -0.210558 -0.176467
			-0.865147 -0.222720 -0.449351
			-0.414851 -0.391685 -0.821268
			-0.591869 -0.448441 -0.669769
			-0.766372 -0.349611 -0.538930
			-0.871919 -0.302024 -0.385406
			-0.078235 -0.440367 -0.894403
			 0.526757 -0.338687 -0.779627
			 0.258399 -0.411587 -0.873972
			 0.623119 -0.258776 -0.738077
			 0.677667 -0.134972 -0.722876
			 0.693416  0.048548 -0.718900
			 0.772914  0.170130 -0.611277
			 0.142450 -0.043942  0.988826
			-0.138537  0.013852  0.990260
			 0.511097 -0.052914  0.857893
			 0.258404 -0.106824  0.960112
			-0.410235  0.087590  0.907764
			-0.713632 -0.060217  0.697927
			-0.550445 -0.045009  0.833657
			-0.872609 -0.091917  0.479692
			-0.931249 -0.178392  0.317727
			 0.978470 -0.196303 -0.063730
			 0.983465 -0.174950  0.046799
			 0.935951 -0.107217  0.335410
			 0.983089 -0.169895 -0.068342
			 0.983661 -0.104596 -0.146530
			 0.756961 -0.105946  0.644815
			 0.856394  0.020420 -0.515918
			 0.846850 -0.169590 -0.504068
			 0.940199 -0.214462 -0.264635
			-0.957244 -0.278426 -0.078503
			-0.951213 -0.251184  0.179165
			-0.916632 -0.291752 -0.273251
			-0.311653 -0.505367 -0.804660
			-0.696341 -0.444203 -0.563730
			-0.552875 -0.544595 -0.630671
			-0.804783 -0.373798 -0.461084
			-0.877735 -0.351847 -0.325246
			-0.037648 -0.493656 -0.868842
			 0.179966 -0.463223 -0.867777
			 0.513859 -0.433941 -0.740030
			 0.826293 -0.294925 -0.479853
			-0.012791 -0.060750  0.998071
			-0.125220 -0.107727  0.986263
			 0.140773 -0.085656  0.986330
			-0.318552  0.075471  0.944896
			-0.210464 -0.036346  0.976926
			 0.541485 -0.145607  0.828005
			 0.467855 -0.151965  0.870643
			 0.572318 -0.120218  0.811172
			 0.468576 -0.126002  0.874391
			 0.136314 -0.143163  0.980267
			 0.041416 -0.253174  0.966534
			-0.413370 -0.073563  0.907587
			-0.857673 -0.145853  0.493075
			-0.775673 -0.242557  0.582665
			-0.620621 -0.189121  0.760962
			-0.489844 -0.194580  0.849819
			-0.874701 -0.255155  0.412060
			-0.873835 -0.315788  0.369717
			 0.960524 -0.245120 -0.131564
			 0.982415 -0.161122 -0.094343
			 0.989771 -0.116268  0.082674
			 0.977608 -0.116761  0.175071
			 0.896461 -0.159760  0.413322
			 0.779716 -0.165541  0.603854
			 0.901818 -0.329340 -0.279749
			-0.944749 -0.318111  0.079088
			-0.920524 -0.383197 -0.076132
			-0.889695 -0.331951  0.313450
			-0.923164 -0.324615  0.205897
			-0.144481 -0.524213 -0.839241
			-0.275260 -0.603352 -0.748464
			-0.741674 -0.483960 -0.464437
			-0.554227 -0.684139 -0.474117
			-0.793395 -0.565466 -0.225328
			 0.201541 -0.546947 -0.812546
			 0.004954 -0.587227 -0.809407
			 0.569903 -0.463438 -0.678554
			 0.735261 -0.389620 -0.554605
			 0.846188 -0.333180 -0.415880
			 0.468770 -0.476954 -0.743485
			-0.170608 -0.258286  0.950885
			 0.649744 -0.135993  0.747889
			 0.727086 -0.047246  0.684919
			 0.834389 -0.037193  0.549919
			 0.770934 -0.043361  0.635438
			 0.223335 -0.183737  0.957268
			 0.516671 -0.150184  0.842909
			 0.418337 -0.256832  0.871224
			 0.067263 -0.394975  0.916226
			 0.031973 -0.370038  0.928466
			-0.078634 -0.404682  0.911070
			-0.857911 -0.198981  0.473703
			-0.750792 -0.324401  0.575391
			-0.799025 -0.350656  0.488467
			-0.850102 -0.274718  0.449284
			-0.815106 -0.181345  0.550196
			-0.601310 -0.332370  0.726606
			-0.907703 -0.327372  0.262493
			-0.869817 -0.301676  0.390397
			-0.827051 -0.205534  0.523205
			-0.852631 -0.250113  0.458763
			 0.951603 -0.281140 -0.124146
			 0.997288 -0.073275 -0.006907
			 0.977656 -0.197673 -0.071515
			 0.989065 -0.132080 -0.065616
			 0.982538 -0.140449 -0.122036
			 0.951532 -0.110017  0.287198
			 0.916551 -0.245374 -0.315795
			 0.941619 -0.282256 -0.183538
			-0.935560 -0.328539  0.129573
			-0.973468 -0.228091  0.018274
			-0.882931 -0.460829 -0.089833
			-0.057199 -0.787220 -0.614013
			-0.751659 -0.579701 -0.314573
			-0.412371 -0.816415 -0.404248
			-0.538697 -0.737925 -0.406537
			-0.692106 -0.684678 -0.228484
			-0.721208 -0.664556 -0.195509
			-0.780386 -0.586391 -0.217125
			-0.800079 -0.598531 -0.040428
			-0.768002 -0.567332 -0.297166
			-0.740958 -0.603496 -0.294573
			 0.164521 -0.578974 -0.798575
			 0.423452 -0.549868 -0.719954
			 0.239713 -0.614115 -0.751931
			 0.598286 -0.426505 -0.678341
			 0.784266 -0.291562 -0.547649
			 0.650937 -0.396342 -0.647451
			-0.434654 -0.338577  0.834530
			 0.870894  0.022734  0.490945
			 0.904735  0.037154  0.424352
			 0.916959  0.073289  0.392193
			 0.932744  0.028462  0.359413
			 0.923567  0.056163  0.379302
			 0.729698 -0.095261  0.677101
			 0.842407  0.075908  0.533468
			 0.334151 -0.273264  0.902037
			 0.072527 -0.442642  0.893760
			 0.112044 -0.439019  0.891464
			 0.272724 -0.248995  0.929313
			 0.115760 -0.369961  0.921807
			-0.084175 -0.299406  0.950406
			-0.318942 -0.288035  0.902946
			-0.751092 -0.356328  0.555779
			-0.705655 -0.191270  0.682251
			-0.690793 -0.012399  0.722946
			-0.738045  0.115279  0.664831
			-0.707019  0.079929  0.702663
			-0.743286  0.214522  0.633645
			-0.703269  0.191623  0.684612
			-0.571701 -0.202359  0.795115
			-0.964184 -0.202870  0.170861
			-0.963775 -0.149275  0.221029
			-0.906117 -0.219009  0.361921
			-0.948057 -0.120305  0.294474
			-0.856498 -0.160189  0.490665
			-0.784041 -0.057097  0.618077
			 0.989622 -0.032062  0.140074
			 0.994586 -0.098920 -0.031848
			 0.971053 -0.186086 -0.149758
			 0.990829 -0.128261 -0.042510
			 0.997882 -0.058983  0.027441
			 0.972107 -0.179966 -0.150402
			 0.990007 -0.066723 -0.124232
			 0.934431 -0.146744 -0.324508
			-0.972390 -0.202198  0.116505
			-0.969421 -0.237439 -0.062011
			-0.998416 -0.027196 -0.049253
			-0.997307 -0.073316 -0.001679
			-0.997929  0.034090 -0.054541
			-0.870551 -0.492076 -0.001173
			-0.953872 -0.297268 -0.041956
			 0.155023 -0.769703 -0.619294
			 0.154906 -0.651493 -0.742672
			 0.286114 -0.785905 -0.548172
			 0.413019 -0.778542 -0.472534
			 0.034935 -0.814788 -0.578706
			-0.277824 -0.830829 -0.482220
			-0.697020 -0.697539 -0.166139
			-0.731013 -0.660082 -0.172950
			-0.357454 -0.805556 -0.472552
			-0.618968 -0.764763 -0.178932
			-0.382568 -0.661800 -0.644719
			-0.623890 -0.478527 -0.617878
			-0.618261 -0.653960 -0.435992
			-0.728141 -0.669793 -0.145560
			-0.802832 -0.496204 -0.330518
			-0.768175 -0.484855 -0.418119
			-0.770436 -0.626926 -0.115731
			-0.836596 -0.547417  0.021006
			-0.739852 -0.362296 -0.566887
			-0.707425 -0.457720 -0.538555
			-0.836356 -0.395901 -0.379171
			-0.759428 -0.454150 -0.465851
			 0.345885 -0.545396 -0.763483
			 0.312831 -0.570898 -0.759086
			 0.173901 -0.668306 -0.723275
			 0.654163 -0.425275 -0.625469
			 0.843193 -0.250739 -0.475558
			-0.384591 -0.062042  0.921000
			 0.984237  0.013184  0.176365
			 0.969145  0.016523  0.245938
			 0.987958  0.051650  0.145846
			 0.925698  0.314613  0.210005
			 0.899983  0.260873  0.349250
			 0.583588 -0.095095  0.806462
			 0.721096  0.031617  0.692113
			 0.691817  0.148824  0.706570
			 0.766113  0.234537  0.598385
			 0.551823  0.055016  0.832145
			 0.323387 -0.078323  0.943020
			 0.097509 -0.148468  0.984098
			-0.111996 -0.047016  0.992596
			-0.524440  0.032482  0.850828
			-0.514758  0.254448  0.818706
			-0.538719  0.372016  0.755900
			-0.548248  0.418622  0.724002
			-0.656155  0.241694  0.714874
			-0.635041  0.441847  0.633636
			-0.565634  0.505786  0.651335
			-0.358284  0.129258  0.924622
			-0.978736  0.070371  0.192673
			-0.988232  0.013909  0.152332
			-0.963967  0.143207  0.224187
			-0.867736  0.019869  0.496628
			-0.894405  0.234689  0.380738
			-0.793334  0.112184  0.598361
			 0.992256 -0.124141 -0.004110
			 0.991660 -0.128755  0.005716
			 0.997005 -0.076929  0.007978
			 0.950270 -0.261883 -0.168537
			 0.988800 -0.120618 -0.087901
			 0.995018 -0.080380 -0.058978
			 0.935052 -0.249826 -0.251524
			 0.966798 -0.075634 -0.244092
			-0.997213 -0.009336  0.074021
			-0.980436  0.021238 -0.195689
			-0.992531 -0.000321 -0.121994
			-0.958324  0.231198 -0.167818
			-0.973832  0.226240 -0.021624
			-0.894468 -0.437669  0.091507
			-0.874094 -0.485017  0.026817
			-0.949398 -0.308475 -0.059047
			-0.962681 -0.207051 -0.174288
			-0.976432  0.004074 -0.215788
			 0.778799 -0.480891 -0.402761
			 0.353682 -0.742606 -0.568722
			 0.285986 -0.655853 -0.698619
			 0.595276 -0.519237 -0.613221
			 0.896405 -0.354214 -0.266439
			-0.039930 -0.743670 -0.667354
			-0.692743 -0.678068 -0.245624
			-0.187488 -0.707753 -0.681127
			-0.206535 -0.451688 -0.867941
			-0.136687 -0.572712 -0.808281
			-0.456478 -0.410774 -0.789235
			-0.752930 -0.463441 -0.467245
			-0.723834 -0.312050 -0.615378
			-0.513868 -0.194047 -0.835635
			-0.764256 -0.316610 -0.561846
			 0.791604 -0.609013  0.049658
			-0.865821 -0.432645 -0.251341
			 0.981367 -0.190970 -0.021201
			-0.708493 -0.316264 -0.630884
			-0.785184 -0.137517 -0.603801
			-0.657127 -0.044988 -0.752436
			-0.706154 -0.301357 -0.640727
			-0.909298 -0.168661 -0.380434
			-0.734254 -0.164931 -0.658535
			 0.629968 -0.466869 -0.620624
			 0.481040 -0.551025 -0.681888
			 0.508630 -0.632924 -0.583697
			 0.544815 -0.582613 -0.603108
			 0.850940 -0.309428 -0.424447
			 0.943677 -0.199860 -0.263685
			-0.063264  0.193666  0.979026
			 0.996541 -0.064145  0.052831
			 0.988194  0.152782 -0.011411
			 0.971512  0.203473  0.121504
			 0.995932  0.083956 -0.032718
			 0.994378  0.023068 -0.103343
			 0.880454  0.457195  0.125590
			 0.845643  0.458439  0.273355
			 0.820654  0.510002  0.257733
			 0.909350  0.400116  0.113970
			 0.929206  0.362102  0.073880
			 0.952621  0.303731  0.016159
			 0.814476  0.398137  0.422037
			 0.545520  0.184230  0.817599
			 0.696763  0.359900  0.620478
			 0.303882  0.057808  0.950954
			 0.122424  0.078507  0.989368
			-0.359963  0.301590  0.882876
			-0.279868  0.498726  0.820333
			-0.386785  0.567253  0.727064
			-0.497537  0.639802  0.585757
			-0.320327  0.764913  0.558837
			-0.317724  0.660306  0.680476
			-0.499190  0.514740  0.697031
			-0.648384  0.437289  0.623198
			-0.442362  0.735639  0.512982
			-0.308093  0.788934  0.531660
			-0.152177  0.380500  0.912174
			-0.930820  0.311286  0.191506
			-0.947792  0.258271  0.187047
			-0.970188  0.213862  0.114011
			-0.828075  0.458212  0.323008
			-0.880670  0.405485  0.244953
			-0.737605  0.395658  0.547169
			-0.741264  0.386181  0.548991
			-0.668393  0.588465  0.454927
			 0.973379 -0.150817 -0.172589
			-0.964607  0.175286 -0.196997
			-0.906210  0.243720 -0.345521
			-0.868371  0.288337 -0.403476
			-0.920394  0.218721 -0.324092
			-0.969501  0.182497 -0.163594
			-0.917129  0.345749 -0.198326
			-0.795027  0.469302 -0.384300
			-0.859604  0.424920 -0.283766
			-0.820028  0.486151 -0.302014
			-0.913781  0.389552 -0.115125
			-0.906048  0.411868  0.097170
			-0.874475  0.484616  0.020982
			-0.850519  0.517738  0.092544
			 0.157998 -0.968188 -0.194031
			-0.927300  0.063789 -0.368843
			 0.827693 -0.374344 -0.418081
			 0.457415 -0.452461 -0.765539
			 0.257699 -0.529832 -0.808003
			 0.577866 -0.469477 -0.667580
			 0.629100 -0.300767 -0.716779
			 0.741093 -0.285499 -0.607677
			 0.087029 -0.577464 -0.811765
			-0.012465 -0.601476 -0.798794
			 0.018938 -0.384641 -0.922872
			-0.211951 -0.181081 -0.960357
			-0.726449 -0.098592 -0.680111
			-0.571231 -0.021349 -0.820512
			-0.700935 -0.061186 -0.710596
			-0.256757  0.104336 -0.960828
			-0.418456  0.055043 -0.906568
			-0.553945  0.161674 -0.816704
			-0.725314  0.102559 -0.680736
			-0.855701  0.083390 -0.510708
			-0.653103 -0.007737 -0.757230
			-0.451117  0.270997 -0.850326
			-0.534910  0.201881 -0.820436
			-0.688504  0.013783 -0.725101
			-0.616575  0.146633 -0.773521
			 0.760181 -0.403808 -0.508984
			 0.791175 -0.377789 -0.480955
			 0.391125 -0.599566 -0.698242
			 0.758299 -0.411071 -0.505968
			 0.673891 -0.465402 -0.573822
			 0.901360 -0.267636 -0.340473
			 0.918865 -0.222214 -0.326049
			 0.963361 -0.084203 -0.254648
			 0.913514 -0.163836 -0.372358
			 0.269765  0.233244  0.934251
			 0.159558  0.367102  0.916394
			 0.972342  0.232595  0.021219
			 0.970909  0.141957 -0.192829
			 0.973150  0.205978 -0.102729
			 0.935769  0.350350  0.039902
			 0.740987  0.640335  0.202259
			 0.880707  0.458705  0.118089
			 0.716669  0.676799  0.168310
			 0.706368  0.592442  0.387370
			 0.715689  0.591395  0.371538
			 0.613488  0.732172  0.295900
			 0.741475  0.540786  0.397196
			 0.916407  0.366397  0.161095
			 0.914318  0.378239  0.144769
			 0.481034  0.353602  0.802230
			 0.647757  0.352081  0.675611
			 0.667897  0.473216  0.574439
			-0.026119  0.595383  0.803017
			-0.161282  0.646693  0.745505
			-0.129912  0.700288  0.701940
			-0.254798  0.591441  0.765033
			-0.172070  0.777089  0.605413
			-0.368273  0.823983  0.430613
			-0.283926  0.768391  0.573552
			-0.112065  0.925129  0.362736
			-0.199654  0.943763  0.263535
			-0.424638  0.689101  0.587216
			-0.519540  0.637893  0.568481
			-0.291952  0.878351  0.378501
			-0.175788  0.881685  0.437870
			-0.868251  0.461868  0.181156
			-0.800759  0.559660  0.213460
			-0.630018  0.738908  0.238940
			-0.562970  0.738012  0.372026
			-0.509539  0.651952  0.561542
			-0.286682  0.843556  0.454123
			-0.695069  0.573453 -0.433625
			-0.771775  0.387642 -0.504081
			-0.550886  0.652210 -0.520717
			-0.827566  0.310369 -0.467766
			-0.876266  0.418136 -0.239417
			-0.559474  0.641949 -0.524300
			-0.573070  0.658351 -0.488022
			-0.613206  0.734993 -0.289420
			-0.385821  0.847911 -0.363578
			-0.652875  0.743892 -0.142757
			-0.769687  0.590273 -0.243225
			-0.692383  0.709258  0.132509
			-0.736951  0.671962  0.073283
			-0.541466  0.840709 -0.004743
			-0.497148  0.861524  0.103054
			 0.534223 -0.233757 -0.812381
			 0.257441 -0.348572 -0.901234
			 0.822501 -0.291508 -0.488380
			 0.806326 -0.111259 -0.580913
			 0.058994 -0.115706 -0.991530
			 0.211053 -0.132221 -0.968491
			 0.003700  0.131405 -0.991322
			-0.652296  0.119713 -0.748451
			-0.552779  0.173703 -0.815023
			-0.303858  0.240127 -0.921960
			-0.022326  0.303061 -0.952709
			-0.342838  0.449313 -0.824973
			-0.531633  0.349780 -0.771376
			-0.282677  0.531845 -0.798270
			-0.683243  0.363171 -0.633471
			-0.265068  0.566789 -0.780057
			-0.412555  0.402897 -0.816989
			-0.522467  0.371522 -0.767463
			 0.949211  0.004550 -0.314607
			 0.228932  0.539029  0.810579
			 0.957600  0.198190 -0.209103
			 0.949838  0.182517 -0.253960
			 0.964270  0.096605 -0.246678
			 0.967981  0.250238 -0.019828
			 0.939287  0.309236  0.148705
			 0.512616  0.814080  0.272944
			 0.575673  0.811332  0.101696
			 0.779649  0.618491  0.098058
			 0.682420  0.728227  0.063148
			 0.394552  0.902879  0.170699
			 0.592359  0.708972  0.382714
			 0.525368  0.687362  0.501519
			 0.436237  0.828349  0.351477
			 0.450420  0.811470  0.372341
			 0.339316  0.868660  0.360963
			 0.930116  0.367264  0.001043
			 0.832454  0.552951  0.035562
			 0.689744  0.719055  0.084936
			 0.576254  0.477307  0.663408
			 0.417841  0.567740  0.709282
			 0.119450  0.816785  0.564441
			-0.031791  0.766981  0.640882
			 0.254315  0.684728  0.682987
			-0.046900  0.858631  0.510444
			 0.006944  0.920788  0.390002
			-0.196474  0.946785  0.254942
			-0.084915  0.901060  0.425300
			 0.128339  0.976601  0.172570
			 0.065657  0.997830  0.005002
			-0.026625  0.999618 -0.007349
			-0.167064  0.871935  0.460239
			-0.209149  0.807508  0.551532
			-0.128821  0.943375  0.305693
			-0.640187  0.736186  0.219525
			-0.316300  0.937919  0.142343
			-0.239868  0.940695  0.239909