<?xml version="1.0"?>
<VTKFile type="PolyData" version="0.1" byte_order="LittleEndian" compressor="vtkZLibDataCompressor">
	<PolyData>
		<Piece NumberOfPoints="806" NumberOfVerts="0" NumberOfLines="0" NumberOfStrips="0" NumberOfPolys="1608">
		<PointData Normals="Normals">
		<DataArray type="Float32" Name="Normals" NumberOfComponents="3" format="ascii">
			 0.472296 -0.041047 -0.880484
			 0.463098 -0.039327 -0.885434
			 0.306259 -0.018852 -0.951762
			 0.037959 -0.053888 -0.997825
			 0.911448 -0.013142 -0.411205
			 0.840274 -0.049065 -0.539938
			 0.260768 -0.049492 -0.964132
			 0.644930 -0.043111 -0.763025
			-0.030039 -0.006419 -0.999528
			-0.028660 -0.028368 -0.999187
			 0.111662  0.023469 -0.993469
			 0.542397 -0.023638 -0.839789
			 0.453240  0.066383 -0.888913
			-0.084978 -0.052750 -0.994985
			 0.427321 -0.058509 -0.902205
			 0.125678 -0.076689 -0.989103
			 0.090888 -0.071345 -0.993302
			 0.114622 -0.016722 -0.993268
			 0.912354 -0.033515 -0.408029
			 0.688417 -0.035913 -0.724426
			 0.710877  0.008651 -0.703264
			 0.702631  0.008557 -0.711503
			 0.560306 -0.058462 -0.826220
			-0.210830 -0.067833 -0.975167
			-0.196394 -0.051728 -0.979160
			 0.023300  0.001289 -0.999728
			 0.308736  0.065885 -0.948863
			 0.597687  0.068524 -0.798796
			 0.619135  0.114920 -0.776830
			-0.079030 -0.083177 -0.993396
			-0.087151 -0.056026 -0.994618
			-0.182679 -0.097528 -0.978323
			 0.842117  0.015710 -0.539066
			 0.691643  0.015597 -0.722071
			 0.372177 -0.017642 -0.927994
			 0.563893 -0.074512 -0.822479
			 0.948187 -0.021758 -0.316966
			 0.050391  0.119230 -0.991587
			 0.825657 -0.035515 -0.563053
			-0.004573  0.025595 -0.999662
			 0.039414  0.262150 -0.964222
			 0.830438 -0.005819 -0.557081
			 0.753832 -0.028715 -0.656440
			 0.742173  0.087096 -0.664525
			 0.931131  0.025846 -0.363767
			 0.912967  0.064990 -0.402826
			-0.364924 -0.119534 -0.923332
			-0.333400 -0.144995 -0.931569
			-0.316817 -0.071692 -0.945773
			-0.488034 -0.151856 -0.859513
			-0.210967 -0.064200 -0.975383
			-0.359204 -0.102417 -0.927622
			-0.005489 -0.021375 -0.999757
			-0.385222 -0.105572 -0.916765
			 0.301978 -0.026117 -0.952957
			 0.628913  0.044849 -0.776181
			 0.056890 -0.012648 -0.998300
			 0.846212  0.053054 -0.530199
			-0.217875 -0.137896 -0.966186
			-0.173271 -0.092743 -0.980498
			-0.092019 -0.022480 -0.995503
			-0.228062  0.043810 -0.972660
			-0.333707 -0.174930 -0.926304
			 0.917216  0.080250 -0.390225
			 0.948825  0.039101 -0.313373
			 0.993925 -0.000732 -0.110056
			 0.970941 -0.014217 -0.238898
			 0.800288  0.148941 -0.580823
			 0.430061  0.180277 -0.884618
			 0.177562 -0.005155 -0.984096
			 0.087289  0.343977 -0.934912
			-0.094934  0.160495 -0.982461
			 0.266471  0.516883 -0.813527
			 0.134954  0.594697 -0.792542
			-0.001772  0.424912 -0.905233
			 0.929558  0.038910 -0.366617
			 0.921899  0.035539 -0.385796
			 0.982378  0.094952 -0.160989
			 0.991611  0.046986 -0.120413
			 0.991071  0.071916 -0.112274
			-0.457944 -0.181118 -0.870336
			-0.661280 -0.235677 -0.712156
			-0.565672 -0.219072 -0.794999
			-0.710808 -0.188627 -0.677622
			-0.532025 -0.126092 -0.837287
			-0.469395 -0.132371 -0.873010
			-0.173314 -0.035101 -0.984241
			-0.085645 -0.041244 -0.995472
			-0.372778 -0.093365 -0.923212
			 0.567547  0.026442 -0.822916
			 0.203473 -0.018943 -0.978897
			 0.827492  0.071438 -0.556915
			 0.936151  0.015871 -0.351241
			 0.994658 -0.001691 -0.103210
			-0.398192 -0.210541 -0.892813
			-0.302905 -0.164304 -0.938751
			-0.464098 -0.147570 -0.873405
			-0.534791  0.077696 -0.841405
			-0.194819  0.423256 -0.884817
			-0.267212  0.218941 -0.938436
			 0.986609  0.057242 -0.152726
			 0.984419  0.085150 -0.153844
			 0.935616  0.149403 -0.319844
			 0.985296  0.068262 -0.156628
			 0.888727  0.284255 -0.359671
			 0.690670  0.355957 -0.629499
			 0.445968  0.342120 -0.827083
			-0.209558  0.419962 -0.883016
			 0.223843  0.701125 -0.676992
			 0.607788  0.528684 -0.592526
			-0.016087  0.670983 -0.741298
			 0.220487  0.836195 -0.502158
			-0.001635  0.847094 -0.531440
			-0.223411  0.699190 -0.679132
			-0.244183  0.773636 -0.584690
			 0.987651  0.019929  0.155398
			 0.989025  0.125262 -0.078348
			 0.988840  0.148226 -0.014982
			 0.944162  0.009948  0.329332
			 0.884823 -0.071746  0.460369
			 0.946572  0.002216  0.322486
			 0.989784  0.073729  0.122031
			 0.983434  0.059215  0.171322
			-0.679086 -0.308788 -0.665952
			-0.743628 -0.243396 -0.622716
			-0.792569 -0.289434 -0.536714
			-0.543043 -0.258055 -0.799070
			-0.587604 -0.143768 -0.796274
			-0.709050 -0.188032 -0.679627
			-0.823511 -0.200086 -0.530844
			-0.877525 -0.249270 -0.409653
			-0.817626 -0.270624 -0.508184
			-0.516064 -0.199469 -0.833001
			-0.637417 -0.173921 -0.750634
			-0.200391 -0.023136 -0.979443
			 0.028702  0.022928 -0.999325
			-0.370826 -0.073693 -0.925774
			 0.795566  0.257070 -0.548626
			 0.389003  0.112253 -0.914372
			 0.968028  0.132709 -0.212863
			 0.998337  0.004398  0.057482
			 0.939051 -0.044561  0.340877
			-0.488035 -0.268693 -0.830437
			-0.527650 -0.167898 -0.832704
			-0.682146  0.087058 -0.726015
			-0.568806  0.346142 -0.746087
			-0.384686  0.380803 -0.840836
			-0.281777  0.670296 -0.686517
			-0.199858  0.875577 -0.439797
			-0.409916  0.547295 -0.729683
			 0.966990  0.075905  0.243245
			 0.986841  0.036675  0.157482
			 0.991956  0.024551  0.124178
			 0.977881  0.201051 -0.057681
			 0.994089  0.087863  0.063766
			 0.892216  0.435771 -0.118551
			 0.800320  0.512461 -0.311242
			 0.353625  0.702356 -0.617775
			 0.567899  0.682618 -0.459917
			-0.212333  0.882770 -0.419085
			-0.137501  0.962344 -0.234493
			 0.557017  0.806062 -0.199991
			-0.285106  0.936234 -0.205381
			-0.317177  0.931654 -0.177258
			 0.810057 -0.077488  0.581208
			 0.823357 -0.059141  0.564434
			 0.774774 -0.038843  0.631043
			 0.753504 -0.063243  0.654394
			 0.753852 -0.053896  0.654830
			 0.893272  0.049951  0.446732
			-0.770930 -0.369793 -0.518575
			-0.705981 -0.322270 -0.630661
			-0.568735 -0.300948 -0.765487
			-0.809606 -0.341924 -0.477102
			-0.800031 -0.378266 -0.465689
			-0.886716 -0.335861 -0.317697
			-0.901424 -0.273664 -0.335475
			-0.794155 -0.228360 -0.563178
			-0.843283 -0.235866 -0.482950
			-0.858959 -0.231758 -0.456593
			-0.911679 -0.238223 -0.334801
			-0.910085 -0.244932 -0.334295
			-0.941840 -0.295439 -0.160164
			-0.427808 -0.226469 -0.875038
			-0.550985 -0.263172 -0.791932
			-0.726074 -0.215617 -0.652937
			-0.794652 -0.226840 -0.563091
			 0.020741  0.157855 -0.987244
			-0.439748  0.081213 -0.894442
			 0.799631  0.419757 -0.429412
			 0.535055  0.280681 -0.796828
			 0.920311  0.389368 -0.037690
			 0.969664  0.239267  0.050033
			 0.915533 -0.027037  0.401333
			 0.922060  0.161462  0.351762
			 0.931315 -0.095378  0.351504
			 0.822148 -0.060154  0.566086
			-0.523835 -0.303021 -0.796100
			-0.645247 -0.318310 -0.694503
			-0.650523 -0.271944 -0.709131
			-0.692228 -0.170869 -0.701159
			-0.839078 -0.058988 -0.540803
			-0.843526  0.173844 -0.508176
			-0.663948  0.444960 -0.600985
			-0.549408  0.616116 -0.564404
			-0.242458  0.912395 -0.329773
			-0.430670  0.706355 -0.561771
			-0.204148  0.973537  0.102708
			 0.053556  0.991322  0.120050
			 0.901848  0.013403  0.431845
			 0.813568  0.015964  0.581251
			 0.949935  0.054901  0.307586
			 0.962693  0.126321  0.239303
			 0.912228  0.328738  0.244481
			 0.805122  0.591289  0.046433
			-0.375918  0.926636  0.005628
			-0.454360  0.889590 -0.046756
			-0.482589  0.855720 -0.186686
			 0.206331  0.972445 -0.108529
			-0.157192  0.974114 -0.162459
			-0.425609  0.869323 -0.251266
			 0.407328  0.903728 -0.131754
			 0.623457  0.778122  0.076338
			 0.714410 -0.037141  0.698741
			 0.816323  0.025474  0.577033
			 0.764980 -0.053849  0.641799
			 0.809105 -0.011953  0.587542
			 0.776417 -0.058468  0.627502
			 0.754175 -0.044636  0.655155
			-0.831580 -0.267619 -0.486678
			-0.863694 -0.357517 -0.355266
			-0.869922 -0.386795 -0.305982
			-0.914717 -0.364135 -0.175212
			-0.897158 -0.257362 -0.358988
			-0.917384 -0.250683 -0.309134
			-0.944682 -0.266920 -0.190603
			-0.945479 -0.325460 -0.012098
			-0.920490 -0.382925  0.077887
			-0.932573 -0.354701 -0.067039
			-0.616134 -0.170873 -0.768883
			 0.947442 -0.097039 -0.304855
			 0.408730 -0.260348 -0.874733
			 0.746278 -0.243951 -0.619320
			-0.667250 -0.289728 -0.686175
			-0.751364 -0.250481 -0.610501
			-0.867025 -0.237287 -0.438136
			 0.516676  0.366684 -0.773686
			 0.144051  0.326083 -0.934302
			-0.147936  0.241447 -0.959072
			-0.177375  0.239630 -0.954524
			-0.589605  0.087161 -0.802975
			-0.651418 -0.044071 -0.757438
			 0.854010  0.480471 -0.199538
			 0.871527  0.487742 -0.050486
			 0.873830  0.384584  0.297515
			 0.911155  0.290161  0.292579
			 0.849118  0.096433  0.519326
			 0.845616  0.160247  0.509171
			 0.871777  0.215531  0.439944
			-0.913429  0.039018 -0.405124
			-0.958915 -0.058990 -0.277493
			-0.754213  0.446419 -0.481531
			-0.943577  0.160993 -0.289386
			-0.872178  0.390144 -0.295116
			-0.689234  0.619775 -0.375279
			-0.624904  0.634898 -0.454313
			-0.486075  0.792241 -0.368898
			-0.139039  0.970962  0.194685
			-0.183759  0.973852  0.133584
			-0.319148  0.947518  0.018833
			-0.491104  0.870350 -0.036160
			 0.136303  0.930372  0.340337
			 0.787424  0.003913  0.616399
			 0.822232  0.019480  0.568820
			 0.855327  0.022944  0.517581
			 0.892246  0.053213  0.448403
			 0.880833  0.104352  0.461784
			 0.797580  0.326046  0.507504
			 0.785452  0.508892  0.352272
			-0.522017  0.808494 -0.271728
			 0.320690  0.945447  0.057340
			-0.258339  0.952893 -0.158923
			 0.617065  0.715154  0.328307
			 0.833196  0.092102  0.545254
			 0.838408  0.007851  0.544986
			 0.740681  0.049136  0.670058
			 0.691049 -0.010878  0.722726
			 0.770480 -0.113002  0.627368
			 0.798553 -0.021315  0.601547
			 0.836858 -0.061527  0.543951
			 0.820119 -0.110002  0.561519
			 0.711907 -0.044295  0.700876
			 0.823327 -0.079476  0.561976
			-0.937081 -0.292216 -0.191024
			-0.911043 -0.388067 -0.139298
			-0.961881 -0.252438 -0.105162
			-0.971287 -0.193192 -0.138845
			-0.953964 -0.296505  0.045145
			-0.830620 -0.418337  0.367512
			-0.842514 -0.433196  0.320175
			-0.928449 -0.371454 -0.002235
			-0.759919 -0.433745  0.484136
			-0.937245 -0.346244 -0.041074
			-0.680467 -0.121731 -0.722597
			-0.682179 -0.200518 -0.703153
			-0.546193 -0.284759 -0.787772
			-0.761697 -0.160141 -0.627831
			-0.899666 -0.192638 -0.391780
			 0.362130  0.238315 -0.901148
			 0.659551  0.318512 -0.680839
			 0.148805  0.267232 -0.952074
			-0.268411  0.065703 -0.961061
			 0.049776  0.133079 -0.989855
			-0.716571 -0.090716 -0.691590
			-0.601737 -0.091895 -0.793390
			-0.456369  0.007341 -0.889760
			 0.865262  0.344814 -0.363903
			 0.905221  0.416241  0.085545
			 0.827271  0.404650  0.389719
			 0.847217  0.402404  0.346836
			 0.799100  0.206311  0.564690
			 0.823452  0.297357  0.483224
			 0.787462  0.119350  0.604697
			 0.752034  0.107110  0.650363
			-0.967914  0.187734 -0.167031
			-0.988002 -0.141687 -0.061449
			-0.988852 -0.001684 -0.148890
			-0.915668  0.293655 -0.274443
			-0.892178  0.280250 -0.354229
			-0.842996  0.417515 -0.339173
			-0.734175  0.673222 -0.088088
			-0.611985  0.788554 -0.060477
			 0.006504  0.909534  0.415578
			-0.073521  0.828942  0.554481
			-0.204711  0.803767  0.558617
			-0.466326  0.848804 -0.249142
			-0.432372  0.862636 -0.262512
			-0.585077  0.810097 -0.037783
			-0.312742  0.895844  0.315683
			 0.824073  0.015079  0.566283
			 0.827484  0.102975  0.551966
			 0.690448  0.532990  0.489084
			 0.640145  0.620226  0.453359
			-0.519042  0.751956 -0.406397
			 0.442164  0.843923  0.303785
			 0.168046  0.963723  0.207362
			-0.502110  0.826899 -0.253227
			-0.263199  0.941535  0.210330
			 0.460968  0.790089  0.404064
			 0.616104  0.017323  0.787474
			 0.699358  0.075020  0.710824
			 0.850924 -0.101556  0.515379
			 0.799992 -0.134799  0.584672
			 0.823762 -0.065443  0.563147
			 0.701203 -0.038396  0.711927
			 0.873739 -0.079750  0.479813
			 0.918378 -0.033947  0.394244
			-0.940438 -0.339085 -0.024437
			-0.907918 -0.408773 -0.092677
			-0.942488 -0.332524  0.033838
			-0.964609 -0.263647  0.004500
			-0.961090 -0.272598  0.044685
			-0.899295 -0.113850 -0.422264
			-0.972948 -0.042077 -0.227162
			-0.965063 -0.247711  0.085400
			-0.966407 -0.235458  0.103040
			-0.995992 -0.056954  0.068972
			-0.760835 -0.582468  0.286113
			-0.825628 -0.369543  0.426353
			-0.898598 -0.256836  0.355748
			-0.563522 -0.403916  0.720622
			-0.655807 -0.418404  0.628375
			-0.616980 -0.429857  0.659210
			-0.916239 -0.365968  0.163012
			-0.516143 -0.487474  0.704248
			-0.828647 -0.380202  0.410842
			-0.398415 -0.510834  0.761784
			-0.680163 -0.128184 -0.721766
			-0.791531 -0.060651 -0.608112
			 0.485036  0.138210 -0.863504
			 0.338199  0.124153 -0.932849
			 0.218971  0.069175 -0.973276
			 0.699544  0.172139 -0.693546
			 0.012305 -0.034806 -0.999318
			-0.219006 -0.088937 -0.971662
			-0.609832 -0.217324 -0.762152
			-0.638181 -0.325494 -0.697696
			-0.323454 -0.209910 -0.922668
			-0.361969 -0.101995 -0.926594
			 0.941559  0.321939  0.099110
			 0.937184  0.287564 -0.197468
			 0.908561  0.188338 -0.372889
			 0.855015  0.324460  0.404567
			 0.804365  0.316873  0.502581
			 0.738858  0.338688  0.582563
			 0.767705  0.285130  0.573872
			 0.717710  0.204712  0.665572
			 0.588986  0.092519  0.802830
			-0.982798  0.172413 -0.066191
			-0.867918  0.496666 -0.006404
			-0.979106 -0.170611  0.110651
			-0.991328  0.102383  0.082385
			-0.833294  0.521726 -0.182821
			-0.698831  0.676235  0.233114
			-0.119389  0.820244  0.559416
			-0.195543  0.861026  0.469464
			-0.160829  0.776740  0.608941
			-0.349591  0.796534  0.493275
			-0.128321  0.771947  0.622601
			-0.117553  0.765824  0.632215
			-0.621668  0.750766  0.223338
			-0.738577  0.668362  0.088302
			-0.740036  0.671320 -0.040934
			-0.246671  0.822282  0.512841
			-0.556437  0.772367  0.306311
			-0.382039  0.851785  0.358479
			 0.763889  0.171121  0.622247
			 0.765401  0.038770  0.642384
			 0.807094  0.291057  0.513698
			 0.657864  0.428584  0.619298
			 0.440383  0.688142  0.576648
			 0.272439  0.902146  0.334528
			 0.040545  0.918918  0.392358
			-0.590819  0.804843 -0.056228
			-0.431226  0.781488  0.450910
			-0.154204  0.834286  0.529328
			-0.621373  0.745150  0.242174
			 0.241981  0.827546  0.506569
			 0.431185 -0.038612  0.901437
			 0.815199 -0.034409  0.578158
			 0.770427 -0.040721  0.636226
			 0.761070 -0.043950  0.647179
			 0.757939  0.000814  0.652324
			 0.734890 -0.102928  0.670330
			 0.828611 -0.096204  0.551496
			 0.746787 -0.184658  0.638914
			 0.871542 -0.080745  0.483627
			 0.611539 -0.144085  0.777984
			 0.734656 -0.225133  0.639997
			-0.945737 -0.272526  0.176949
			-0.933028 -0.265025  0.243353
			-0.934741 -0.204182  0.290808
			-0.907040 -0.013142 -0.420839
			-0.969050  0.059764 -0.239523
			-0.997852 -0.003091  0.065438
			-0.935739 -0.287610  0.204138
			-0.973746 -0.131201  0.186023
			-0.959102 -0.037983  0.280502
			 0.926906 -0.242677  0.286274
			 0.132203 -0.729029  0.671594
			-0.575396 -0.275861  0.769948
			-0.594339 -0.335947  0.730685
			-0.944801 -0.190684  0.266440
			-0.677606 -0.158466  0.718150
			-0.320603 -0.100605  0.941856
			-0.153605 -0.363430  0.918871
			-0.370488 -0.371383  0.851360
			-0.219285 -0.343210  0.913303
			-0.293879 -0.406154  0.865259
			-0.534183 -0.406276  0.741342
			 0.476150 -0.435682  0.763847
			-0.436247 -0.485261  0.757767
			-0.473929 -0.412530  0.777953
			 0.945019 -0.189863  0.266253
			 0.755398 -0.392461  0.524736
			-0.733519 -0.320349  0.599438
			-0.503835 -0.308128 -0.806975
			-0.662664 -0.133759 -0.736875
			-0.883827 -0.047284 -0.465419
			-0.783464 -0.085891 -0.615474
			 0.451744  0.053943 -0.890515
			 0.307495  0.023110 -0.951269
			 0.145567 -0.089269 -0.985313
			 0.796196  0.045234 -0.603345
			-0.048043 -0.152106 -0.987196
			-0.606530 -0.397467 -0.688579
			-0.422668 -0.347696 -0.836934
			-0.524538 -0.591207 -0.612645
			-0.505381 -0.472134 -0.722274
			-0.380012 -0.446655 -0.809994
			-0.202022 -0.292497 -0.934683
			 0.971122  0.219306  0.093954
			 0.900401  0.250826  0.355477
			 0.959922  0.004174 -0.280236
			 0.991681  0.067676 -0.109497
			 0.723094  0.253526  0.642542
			 0.842946  0.218985  0.491415
			 0.748533  0.266007  0.607403
			 0.655745  0.268154  0.705756
			 0.733943  0.307035  0.605852
			 0.555816  0.183848  0.810721
			 0.469503  0.097947  0.877481
			 0.623048  0.142730  0.769051
			 0.344499 -0.020660  0.938559
			 0.513044  0.070855  0.855433
			-0.882892  0.453633  0.121320
			-0.931591 -0.121351  0.342654
			-0.973861  0.124405  0.190050
			-0.961678  0.050463  0.269497
			-0.773257  0.558975  0.299366
			-0.186330  0.853757  0.486190
			-0.267164  0.894763  0.357803
			-0.768064  0.609662  0.195933
			-0.615144  0.746497  0.253654
			-0.798527  0.573003  0.184453
			-0.197485  0.937063  0.287946
			-0.465727  0.878817  0.103820
			 0.628490  0.276243  0.727111
			 0.473192  0.552496  0.686176
			-0.003200  0.812806  0.582526
			 0.193171  0.685257  0.702217
			-0.338259  0.868378  0.362629
			-0.709886  0.696036  0.107686
			 0.038940  0.769389  0.637593
			 0.198128 -0.065916  0.977957
			 0.585055 -0.076382  0.807388
			 0.575384 -0.164066  0.801258
			 0.665588 -0.033988  0.745545
			 0.667818  0.085374  0.739412
			 0.521251  0.022495  0.853107
			 0.580019 -0.017650  0.814412
			 0.697451 -0.240081  0.675221
			 0.617778 -0.274313  0.736955
			 0.430271 -0.289252  0.855102
			 0.312622 -0.338815  0.887396
			 0.172650 -0.213788  0.961502
			 0.480222 -0.262900  0.836822
			 0.081474 -0.259994  0.962167
			-0.923710 -0.089421  0.372511
			-0.921426 -0.054595  0.384700
			-0.902332 -0.062552  0.426478
			-0.946614 -0.003046 -0.322354
			-0.997403 -0.029611 -0.065658
			-0.962919 -0.127563  0.237729
			-0.975029 -0.092564  0.201866
			-0.857464 -0.059784  0.511059
			-0.967287 -0.087061  0.238278
			-0.944753 -0.168191  0.281341
			-0.963552 -0.147995  0.222857
			-0.058540 -0.207500  0.976482
			-0.844295 -0.094289  0.527519
			-0.193582  0.014718  0.980974
			 0.231473  0.105584  0.967095
			 0.133137 -0.057225  0.989444
			-0.128099 -0.366522  0.921549
			 0.427680 -0.219692  0.876827
			-0.061503 -0.302322  0.951220
			-0.073998 -0.336472  0.938782
			-0.216727 -0.505433  0.835205
			-0.284274 -0.278712  0.917337
			 0.027928 -0.236456  0.971241
			-0.777805 -0.139241  0.612888
			-0.394065 -0.161583  0.904767
			-0.666198 -0.315523 -0.675740
			-0.560493 -0.417355 -0.715306
			-0.532164 -0.360823 -0.765904
			 0.947990 -0.144454 -0.283633
			 0.756276 -0.271290 -0.595355
			-0.724505 -0.183300 -0.664450
			-0.914277 -0.148159 -0.377024
			-0.982765 -0.104072 -0.152780
			-0.825535 -0.228596 -0.515980
			 0.506073  0.013204 -0.862389
			 0.384433 -0.137243 -0.912894
			 0.205519 -0.136819 -0.969042
			 0.064916 -0.290739 -0.954598
			-0.024159 -0.252931 -0.967183
			 0.990403 -0.004781 -0.138123
			 0.959071 -0.032254 -0.281325
			 0.636146 -0.072449 -0.768160
			-0.497634 -0.604949 -0.621608
			-0.249702 -0.503412 -0.827179
			-0.329647 -0.683671 -0.651097
			-0.343801 -0.813402 -0.469232
			-0.462743 -0.756815 -0.461628
			-0.457435 -0.484778 -0.745482
			 0.485254 -0.400093 -0.777467
			 0.908281  0.139631  0.394373
			 0.975008  0.033355  0.219650
			 0.969520 -0.092863 -0.226734
			 0.984358 -0.128810  0.120193
			 0.950720 -0.101420 -0.292994
			 0.814566  0.038595  0.578785
			 0.747291 -0.114049  0.654636
			 0.687360  0.147082  0.711269
			 0.726712  0.010326  0.686864
			 0.793490 -0.031776  0.607753
			 0.827806  0.107123  0.550692
			 0.709422  0.241551  0.662098
			 0.599667  0.333543  0.727426
			 0.434455  0.287446  0.853594
			 0.612080  0.198961  0.765358
			 0.606113  0.344000  0.717140
			 0.469938  0.181864  0.863761
			 0.521286  0.172792  0.835705
			 0.398633  0.116265  0.909711
			 0.473061  0.156768  0.866970
			 0.544626  0.033025  0.838029
			 0.873341  0.102473  0.476208
			 0.916140  0.087079  0.391286
			-0.859701  0.311568  0.404771
			-0.764265  0.556852  0.325294
			-0.428111  0.846813  0.315640
			-0.781877  0.611818  0.119781
			-0.660355  0.750822  0.014022
			-0.400050  0.916412  0.012236
			-0.569465  0.773756  0.277510
			-0.551154  0.830594 -0.079645
			 0.576590  0.232570  0.783234
			 0.425073  0.475345  0.770298
			-0.531389  0.842228  0.090979
			-0.020302  0.771196  0.636273
			-0.300300  0.887215  0.350242
			 0.412472  0.501098  0.760768
			 0.325430 -0.256872  0.910007
			 0.471411 -0.113607  0.874566
			 0.408316  0.162099  0.898333
			 0.318898 -0.096555  0.942858
			 0.292189  0.022088  0.956106
			 0.185776 -0.232166  0.954770
			-0.842476  0.158091  0.515016
			-0.851654  0.125635  0.508824
			-0.832369  0.082001  0.548122
			-0.877055  0.180317  0.445265
			-0.917892 -0.165932  0.360474
			-0.983058 -0.182049  0.021313
			-0.933640 -0.226423  0.277577
			-0.767594 -0.036500  0.639897
			-0.880793 -0.176680  0.439303
			-0.467082  0.055865  0.882447
			-0.449796  0.046745  0.891907
			 0.296277  0.206659  0.932476
			-0.049243  0.093693  0.994383
			 0.407139  0.141825  0.902288
			 0.401566  0.226387  0.887408
			 0.036651 -0.121249  0.991945
			-0.604870  0.030025  0.795758
			-0.238305 -0.018052  0.971023
			-0.662477 -0.493233 -0.563778
			-0.808153 -0.366385 -0.461141
			-0.273468 -0.433227 -0.858795
			-0.454195 -0.609834 -0.649468
			-0.933252 -0.261476 -0.246315
			 0.757136 -0.172478 -0.630076
			 0.623343 -0.359285 -0.694520
			 0.428678 -0.359055 -0.829044
			 0.258389 -0.408628 -0.875362
			 0.113779 -0.644815 -0.755823
			-0.039564 -0.654730 -0.754826
			-0.224092 -0.848350 -0.479672
			 0.025610 -0.895250 -0.444828
			-0.067439 -0.811855 -0.579952
			-0.209801 -0.665445 -0.716357
			-0.471186 -0.581781 -0.662959
			-0.070097 -0.899051 -0.432197
			-0.004554 -0.982729 -0.184995
			-0.309007 -0.899505 -0.308876
			 0.839849 -0.074917  0.537625
			 0.898358 -0.070521  0.433566
			 0.890047 -0.215902  0.401501
			 0.955704 -0.289862  0.051080
			 0.928578 -0.261186 -0.263677
			 0.790582 -0.485668  0.372969
			 0.798258 -0.331726 -0.502734
			 0.823602 -0.217633  0.523752
			 0.821524 -0.047265  0.568212
			 0.785314 -0.417607  0.457041
			 0.770002 -0.316657  0.553918
			 0.688898 -0.329493  0.645642
			 0.704329 -0.189242  0.684184
			 0.718851 -0.311652  0.621391
			 0.722478  0.094348  0.684926
			 0.418365  0.285476  0.862250
			 0.541470  0.309810  0.781555
			 0.425515  0.365862  0.827697
			 0.846791  0.152314  0.509652
			 0.426770  0.227469  0.875286
			 0.305138  0.339967  0.889558
			 0.635562  0.175926  0.751739
			-0.748305  0.516314  0.416485
			-0.539620  0.840516  0.048404
			-0.788380  0.405970  0.462218
			-0.700440  0.486074  0.522605
			-0.572741  0.740806  0.350962
			 0.502527  0.290461  0.814309
			-0.475585  0.846558  0.239077
			 0.031164  0.594899  0.803196
			 0.367800  0.445975  0.815984
			-0.340644  0.813900  0.470668
			 0.416462  0.286331  0.862887
			 0.103079  0.358701  0.927744
			 0.180726  0.172478  0.968292
			 0.158204 -0.046316  0.986320
			 0.042489  0.117888  0.992117
			-0.699811  0.323553  0.636850
			-0.934695 -0.247837  0.254798
			-0.949000 -0.303955  0.083729
			-0.927198 -0.298639  0.226093
			-0.759609 -0.040755  0.649101
			-0.509658  0.099577  0.854595
			-0.876260 -0.294050  0.381711
			-0.833053 -0.220993  0.507134
			 0.003693  0.224376  0.974496
			 0.221339  0.303881  0.926642
			-0.132406  0.014640  0.991088
			-0.488057  0.134298  0.862418
			-0.811286 -0.485412 -0.325868
			-0.556970 -0.615964 -0.557111
			-0.624235 -0.675051 -0.393239
			-0.910875 -0.369555 -0.183673
			 0.360209 -0.712828 -0.601768
			 0.535710 -0.559928 -0.632056
			 0.825778 -0.526887 -0.201197
			 0.325373 -0.750416 -0.575333
			 0.030950 -0.874388 -0.484239
			 0.074107 -0.958969 -0.273656
			-0.098528 -0.958936 -0.265960
			 0.197937 -0.945413 -0.258874
			-0.284471 -0.797853 -0.531514
			-0.321011 -0.842684 -0.432246
			 0.943674 -0.250574 -0.216082
			 0.762316 -0.425979 -0.487254
			 0.179395 -0.948691 -0.260388
			 0.197955 -0.970871  0.134993
			 0.367303 -0.919701  0.138707
			 0.515112 -0.853733  0.076151
			 0.483021 -0.742320  0.464382
			 0.617026 -0.759857  0.204685
			 0.559995 -0.554914  0.615205
			 0.804199 -0.393615  0.445344
			 0.783168 -0.272820  0.558764
			 0.696232 -0.092796  0.711793
			 0.748402 -0.431652  0.503559
			 0.696265 -0.633396  0.337676
			 0.731464 -0.612748  0.299167
			 0.795073 -0.491698  0.355095
			 0.647049 -0.521180  0.556506
			 0.669427 -0.583615  0.459632
			 0.591182 -0.450402  0.669061
			 0.562305 -0.537875  0.628095
			 0.372095  0.118595  0.920587
			 0.171625  0.263032  0.949399
			-0.513290  0.818898  0.256787
			-0.552568  0.589301  0.589401
			-0.300826  0.568752  0.765523
			-0.072130  0.317447  0.945529
			-0.197232  0.200626  0.959608
			-0.288141  0.372669  0.882096
			-0.539647  0.351332  0.765080
			-0.876457 -0.425472  0.225382
			-0.901742 -0.430526 -0.038839
			-0.910816 -0.407431  0.066444
			-0.734714 -0.121695  0.667373
			-0.410618  0.023132  0.911514
			-0.429815  0.132128  0.893197
			-0.600429 -0.280990  0.748685
			-0.760991 -0.449659  0.467653
			 0.153057  0.278934  0.948035
			-0.036554  0.205390  0.977997
			-0.428684  0.264699  0.863808
			-0.813415 -0.554030 -0.177218
			-0.440803 -0.727058 -0.526384
			-0.607043 -0.741614 -0.285496
			 0.619968 -0.744810 -0.246773
			 0.383722 -0.915118 -0.123762
			 0.291094 -0.925310  0.243034
			-0.248170 -0.940562 -0.231849
			 0.242470 -0.969668 -0.030847
			 0.341599 -0.874792  0.343583
			 0.449377 -0.801956  0.393608
			 0.576984 -0.767819  0.278466
			 0.608204 -0.751480  0.255668
			 0.796527 -0.330796  0.506081
			 0.668670 -0.198384  0.716606
			 0.426910 -0.061449  0.902204
			 0.759845 -0.578322  0.296952
			 0.747428 -0.483272  0.455850
			 0.157004  0.050793  0.986291
			 0.167018  0.210557  0.963209
			 0.116907  0.208416  0.971028
			-0.450717  0.400034  0.798015
			-0.795500 -0.604450  0.042664
			-0.700116 -0.643482  0.309464
			-0.644506 -0.623151  0.443051
			-0.814651 -0.575159 -0.074412
			-0.197834 -0.034047  0.979644
			 0.071115  0.177307  0.981583
			-0.489292 -0.532758  0.690480
			-0.126490 -0.410132  0.903212
			-0.098236 -0.190971  0.976668
			-0.593326 -0.799367 -0.094745
			-0.259219 -0.965804  0.005261
			-0.030686 -0.954006  0.298211
			 0.334423 -0.907370  0.254640
			 0.533910 -0.589952  0.605719
			 0.215875 -0.764077  0.607935
			 0.675883 -0.308437  0.669364
			 0.602778 -0.195159  0.773674
			 0.239297 -0.221152  0.945425
			 0.581403 -0.412867  0.701078
			-0.488528 -0.845848  0.214199
			-0.337787 -0.780365  0.526242
			-0.183163 -0.617277  0.765128
			 0.129680 -0.527844  0.839383
			-0.115930 -0.896010  0.428633
			 0.423128 -0.395039  0.815418
		</DataArray>
	</PointData>
	<Points>
		<DataArray type="Float32" NumberOfComponents="3" format="ascii">
			 0.033991 -0.365974  0.045710
			 0.034255 -0.366465  0.045852
			 0.033966 -0.367725  0.045773
			 0.033411 -0.365626  0.045617
			 0.034193 -0.365906  0.045803
			 0.034193 -0.365906  0.045803
			 0.033960 -0.365697  0.045685
			 0.034445 -0.366406  0.045961
			 0.033298 -0.367997  0.045711
			 0.033090 -0.367508  0.045709
			 0.033779 -0.369518  0.045692
			 0.034658 -0.366920  0.046167
			 0.034450 -0.368138  0.045986
			 0.033112 -0.365758  0.045647
			 0.034158 -0.365329  0.045719
			 0.032455 -0.364299  0.045601
			 0.033833 -0.364277  0.045527
			 0.032506 -0.363694  0.045559
			 0.034193 -0.365906  0.045803
			 0.034397 -0.365837  0.045895
			 0.035065 -0.367397  0.046481
			 0.034936 -0.366281  0.046390
			 0.034407 -0.366044  0.045928
			 0.032367 -0.368413  0.045816
			 0.032648 -0.370026  0.045836
			 0.033724 -0.370115  0.045681
			 0.034577 -0.369787  0.045856
			 0.034630 -0.368085  0.046108
			 0.034938 -0.369681  0.046099
			 0.032276 -0.364381  0.045628
			 0.031601 -0.364095  0.045643
			 0.031361 -0.365959  0.045822
			 0.034971 -0.365124  0.046441
			 0.034536 -0.363476  0.045910
			 0.034015 -0.363622  0.045519
			 0.032220 -0.363818  0.045572
			 0.032220 -0.363818  0.045572
			 0.033674 -0.363180  0.045474
			 0.032220 -0.363818  0.045572
			 0.032144 -0.363266  0.045540
			 0.032766 -0.362452  0.045674
			 0.034888 -0.365891  0.046362
			 0.034878 -0.365719  0.046336
			 0.035052 -0.368539  0.046402
			 0.035008 -0.365699  0.046522
			 0.035304 -0.368570  0.046797
			 0.031340 -0.367743  0.046056
			 0.031270 -0.367187  0.046017
			 0.032026 -0.369160  0.045954
			 0.031203 -0.368404  0.046204
			 0.033044 -0.371009  0.045828
			 0.032323 -0.370769  0.045989
			 0.033938 -0.370602  0.045691
			 0.032057 -0.369731  0.046003
			 0.034646 -0.371475  0.045800
			 0.034972 -0.370791  0.045960
			 0.034159 -0.371088  0.045707
			 0.035271 -0.370726  0.046282
			 0.030712 -0.365090  0.045866
			 0.030440 -0.364026  0.045725
			 0.031852 -0.363395  0.045561
			 0.029988 -0.363659  0.045813