<?xml version="1.0"?>
<VTKFile type="PolyData" version="0.1" byte_order="LittleEndian" compressor="vtkZLibDataCompressor">
	<PolyData>
		<Piece NumberOfPoints="2542" NumberOfVerts="0" NumberOfLines="0" NumberOfStrips="0" NumberOfPolys="5080">
		<PointData Normals="Normals">
		<DataArray type="Float32" Name="Normals" NumberOfComponents="3" format="ascii">
			-0.873914  0.419476  0.245589
			-0.922449  0.342446  0.178375
			-0.913646  0.406311  0.012764
			-0.841923  0.531242  0.094587
			-0.882499  0.408155  0.233678
			-0.873968  0.475672  0.099586
			-0.815664  0.472182  0.334270
			-0.865059  0.494973  0.081696
			-0.841110  0.521290 -0.144189
			-0.902210  0.380414 -0.203232
			-0.907261  0.420393  0.012119
			-0.856261  0.513819  0.052990
			-0.868287  0.304582 -0.391545
			-0.912885  0.349917 -0.210235
			-0.944877  0.315802 -0.086464
			-0.824102  0.526303  0.209431
			-0.856221  0.516284 -0.018369
			-0.883619  0.456182  0.105432
			-0.831479  0.505014 -0.231526
			-0.854326  0.495691 -0.156264
			-0.883308  0.454616 -0.114415
			-0.856476  0.499377  0.130656
			-0.827304  0.552556 -0.101244
			-0.798597  0.483004 -0.359097
			-0.819387  0.538532  0.196439
			-0.890951  0.385420  0.240120
			-0.804032  0.593944  0.027612
			-0.780532  0.391331 -0.487472
			-0.702826  0.447099 -0.553297
			-0.700433  0.275703 -0.658317
			-0.854746  0.400287 -0.330424
			-0.921044  0.220808 -0.320815
			-0.831017  0.248472 -0.497667
			-0.684499  0.197158 -0.701847
			-0.987483  0.131332 -0.087349
			-0.945260  0.040037 -0.323852
			-0.865445  0.494500 -0.080464
			-0.846857  0.508255  0.156558
			-0.806182  0.412673 -0.423995
			-0.945717  0.322723  0.038338
			-0.803085  0.387939 -0.452281
			-0.865255  0.466549 -0.183485
			-0.811698  0.563543 -0.153510
			-0.744207  0.564543 -0.356997
			-0.757153  0.444089 -0.479065
			-0.900249  0.434344  0.029954
			-0.862749  0.494576  0.105162
			-0.709216  0.704436  0.027966
			-0.704167  0.700494 -0.116010
			-0.876475  0.388355 -0.284556
			-0.919248  0.359952 -0.159427
			-0.707500  0.541123 -0.454566
			-0.655532  0.333262 -0.677654
			-0.586760  0.433543 -0.683924
			-0.630676  0.564013 -0.533046
			-0.501556  0.190045 -0.843993
			-0.492076  0.189428 -0.849693
			-0.434389  0.277788 -0.856820
			-0.649544  0.347993 -0.676013
			-0.853010  0.050242 -0.519471
			-0.777746  0.191785 -0.598606
			-0.695651 -0.012500 -0.718271
			-0.467934  0.014068 -0.883652
			-0.979700  0.083824 -0.182104
			-0.938750 -0.078828 -0.335461
			-0.771237 -0.102959 -0.628167
			-0.746404  0.386477 -0.541772
			-0.764013  0.559686 -0.320992
			-0.848728  0.515366 -0.118570
			-0.902909  0.423586 -0.073004
			-0.939844  0.286521 -0.186011
			-0.802706  0.439564 -0.403047
			-0.707764  0.505247 -0.493757
			-0.633819  0.690825 -0.347900
			-0.914345  0.382385 -0.133248
			-0.825639  0.486196 -0.286240
			-0.653845  0.746657  0.122436
			-0.751753  0.658926 -0.026162
			-0.827944  0.508100 -0.237368
			-0.616808  0.764386 -0.187778
			-0.541749  0.835266 -0.094021
			-0.727157  0.468877 -0.501395
			-0.651895  0.467747 -0.596864
			-0.486460  0.365463 -0.793595
			-0.544651  0.424822 -0.723105
			-0.619650  0.563321 -0.546538
			-0.463517  0.573419 -0.675532
			-0.411219  0.424320 -0.806754
			-0.314261  0.139151 -0.939083
			-0.114914  0.306037 -0.945059
			-0.339914  0.373657 -0.863040
			-0.549025  0.485984 -0.679994
			-0.246988  0.247979 -0.936751
			-0.281752  0.016465 -0.959346
			-0.492086 -0.022049 -0.870267
			-0.933224  0.028728 -0.358145
			-0.883447 -0.112731 -0.454767
			-0.570546 -0.069210 -0.818344
			-0.808693 -0.172422 -0.562393
			-0.827077 -0.196434 -0.526647
			-0.611289  0.535753 -0.582491
			-0.840653  0.457392 -0.289992
			-0.871890  0.175496 -0.457176
			-0.489067  0.692256 -0.530656
			-0.424164  0.813090 -0.398711
			-0.801829  0.469587 -0.369540
			-0.496186  0.865240  0.071822
			-0.299731  0.943951  0.138266
			-0.655786  0.744408 -0.125707
			-0.720652  0.655678 -0.225271
			-0.717063  0.551373 -0.426390
			-0.576070  0.693862 -0.432087
			-0.391231  0.902814 -0.178505
			-0.244106  0.959703  0.139220
			-0.578584  0.685643 -0.441741
			-0.497063  0.644863 -0.580587
			-0.667009  0.662405 -0.341055
			-0.437337  0.606568 -0.663936
			-0.454822  0.589192 -0.667825
			-0.455632  0.608237 -0.649959
			-0.554598  0.568292 -0.607836
			-0.277604  0.514716 -0.811174
			-0.446315  0.298274 -0.843703
			-0.361722  0.332139 -0.871115
			-0.116165  0.155364 -0.981003
			-0.156313  0.113728 -0.981138
			-0.111133  0.432613 -0.894704
			 0.151841  0.417685 -0.895814
			 0.131393  0.235307 -0.962999
			-0.356379  0.539187 -0.763068
			-0.068370  0.173043 -0.982538
			-0.391851 -0.035777 -0.919333
			-0.230426  0.029075 -0.972655
			-0.309109  0.003432 -0.951020
			-0.912345 -0.099184 -0.397227
			-0.857988 -0.092977 -0.505185
			-0.808939 -0.038029 -0.586662
			-0.791004 -0.142275 -0.595038
			-0.530807 -0.110323 -0.840281
			-0.398368 -0.040248 -0.916342
			-0.780659 -0.134486 -0.610315
			-0.815939 -0.152064 -0.557781
			-0.931937 -0.171197 -0.319665
			-0.610403  0.430737 -0.664736
			-0.727975  0.445830 -0.520853
			-0.757284  0.182618 -0.627034
			-0.334873  0.740276 -0.582968
			-0.312903  0.807913 -0.499368
			-0.201505  0.777817 -0.595313
			-0.193329  0.697684 -0.689827
			-0.304694  0.946102 -0.109778
			-0.154320  0.984702  0.080916
			-0.011517  0.968083  0.250366
			-0.493343  0.807121 -0.324297
			-0.573190  0.803419 -0.161157
			-0.713571  0.660270 -0.234224
			-0.632950  0.612779 -0.473156
			-0.344487  0.594396 -0.726651
			-0.044587  0.773649 -0.632044
			-0.182031  0.909723 -0.373187
			-0.299389  0.943608 -0.141316
			-0.226885  0.884435 -0.407796
			-0.000663  0.889466  0.457001
			-0.131369  0.990987  0.026227
			-0.175986  0.945975 -0.272324
			-0.485761  0.715116 -0.502638
			-0.502300  0.817590 -0.281499
			-0.431495  0.822517 -0.370511
			-0.451586  0.662458 -0.597678
			-0.440156  0.785154 -0.435655
			-0.448376  0.770210 -0.453582
			-0.493017  0.655600 -0.571946
			-0.666155  0.527621 -0.527118
			-0.557858  0.530784 -0.638015
			-0.613883  0.564513 -0.551790
			-0.335829  0.478895 -0.811097
			-0.706103  0.554395 -0.440528
			-0.548812  0.694187 -0.465735
			-0.725598  0.466572 -0.505785
			 0.748558  0.093549 -0.656437
			-0.689191  0.100427 -0.717586
			 0.273347  0.161752 -0.948218
			-0.425835  0.240627 -0.872217
			 0.038212  0.191352 -0.980777
			 0.011825  0.640739 -0.767668
			 0.307951  0.422660 -0.852364
			 0.170383  0.634463 -0.753941
			 0.277922  0.307782 -0.909961
			 0.178024  0.368712 -0.912337
			 0.053380  0.212179 -0.975772
			 0.004243  0.061235 -0.998114
			-0.162717 -0.013690 -0.986578
			-0.248528 -0.046207 -0.967522
			-0.889819 -0.047426 -0.453843
			-0.839870 -0.094059 -0.534576
			-0.876056 -0.057042 -0.478824
			-0.945178 -0.092781 -0.313099
			-0.884769 -0.097195 -0.455781
			-0.855975 -0.112792 -0.504564
			-0.623369  0.020276 -0.781664
			-0.864026 -0.131382 -0.486002
			-0.771930 -0.112792 -0.625622
			-0.263360 -0.131801 -0.955651
			-0.455050 -0.106883 -0.884028
			-0.031442  0.793476 -0.607789
			 0.040376  0.997812 -0.052361
			 0.221476  0.961942  0.160050
			-0.387479  0.920547  0.049521
			-0.495931  0.868031 -0.023993
			-0.498377  0.846669 -0.186472
			-0.372316  0.916350 -0.147255
			-0.585775  0.784737 -0.202621
			-0.567789  0.762947 -0.309075
			-0.736825  0.586273 -0.336709
			-0.587759  0.663466 -0.462983
			-0.505087  0.535130 -0.677143
			-0.047807  0.495110 -0.867514
			-0.183296  0.455632 -0.871092
			 0.071144  0.524115 -0.848671
			 0.206882  0.866653 -0.453997
			 0.262952  0.917322 -0.298958
			 0.036657  0.804869  0.592319
			 0.298649  0.488988  0.819573
			-0.027267  0.934103  0.355961
			-0.000840  0.979709 -0.200423
			-0.047438  0.910046 -0.411783
			-0.349389  0.935487 -0.052830
			-0.274995  0.953780 -0.121167
			-0.314310  0.934792 -0.165448
			-0.458903  0.801682 -0.383034
			-0.420182  0.881259 -0.216402
			-0.596739  0.753858 -0.274957
			-0.848679  0.427482 -0.311453
			-0.757347  0.381207 -0.530195
			-0.862071  0.369122 -0.347251
			-0.838449  0.389903 -0.380761
			-0.868217  0.369042 -0.331672
			-0.670139  0.429775 -0.605150
			-0.697852  0.331647 -0.634833
			-0.515267  0.354531 -0.780261
			-0.872030  0.442633 -0.208901
			-0.790310  0.560213 -0.248136
			 0.947176  0.032620 -0.319051
			-0.609247  0.024860 -0.792591
			-0.470729  0.004783 -0.882265
			-0.632092  0.059714 -0.772590
			 0.399981  0.386536 -0.831026
			 0.309844  0.639311 -0.703760
			 0.415335  0.555366 -0.720462
			 0.471329  0.433805 -0.767895
			 0.164558  0.327024 -0.930578
			 0.326617  0.366112 -0.871369
			 0.421467  0.501055 -0.755850
			 0.288485  0.209517 -0.934280
			 0.251568  0.108162 -0.961777
			 0.131026  0.081498 -0.988024
			 0.062445 -0.010904 -0.997989
			 0.238911  0.015093 -0.970924
			 0.278862  0.045010 -0.959276
			-0.016839 -0.093348 -0.995491
			-0.086556 -0.144340 -0.985735
			-0.181674 -0.112745 -0.976874
			-0.929072 -0.120701 -0.349652
			-0.852445 -0.072529 -0.517762
			-0.869025 -0.119240 -0.480184
			-0.772536 -0.096278 -0.627629
			-0.776644 -0.210856 -0.593602
			-0.756338 -0.167480 -0.632379
			-0.909632 -0.089657 -0.405625
			-0.787192 -0.068677 -0.612873
			-0.814785 -0.122183 -0.566742
			-0.926293 -0.125179 -0.355404
			-0.731919 -0.107224 -0.672903
			-0.632810 -0.091649 -0.768864
			-0.194601 -0.135535 -0.971473
			-0.048853 -0.211858 -0.976079
			-0.156016 -0.176011 -0.971946
			-0.278809 -0.101629 -0.954954
			-0.531136 -0.083354 -0.843177
			 0.166127  0.790362 -0.589686
			 0.897424  0.402779 -0.179997
			 0.681283  0.673914  0.285820
			-0.472874  0.880194  0.040610
			-0.383603  0.908769  0.164279
			-0.163874  0.934224  0.316814
			-0.236895  0.968104  0.081587
			-0.322412  0.928591 -0.183764
			-0.278657  0.880422 -0.383675
			-0.427049  0.779422 -0.458400
			-0.274392  0.795030 -0.540958
			-0.401146  0.767770 -0.499611
			-0.290596  0.692128 -0.660691
			-0.232707  0.484839 -0.843077
			-0.148592  0.302840 -0.941387
			-0.088931  0.782399 -0.616395
			-0.272912  0.278563 -0.920827
			 0.407114  0.716540 -0.566418
			 0.916287  0.330535 -0.226198
			 0.108432  0.604911  0.788876
			 0.091065  0.973017  0.212002
			 0.142607  0.869657  0.472611
			 0.363129  0.696271  0.619148
			 0.062254  0.119542  0.990875
			 0.948640  0.288805  0.129126
			-0.085627  0.232875  0.968730
			 0.251249  0.882066 -0.398538
			-0.054811  0.987846  0.145450
			-0.253306  0.966291 -0.046024
			-0.115925  0.991998  0.050005
			-0.214121  0.976320 -0.030847
			-0.034742  0.999375 -0.006489
			-0.153825  0.987638 -0.030135
			-0.513124  0.817868 -0.260376
			-0.610859  0.791546  0.017475
			-0.446953  0.893596  0.041461
			-0.744238  0.659026  0.108605
			-0.778664  0.626095 -0.041076
			-0.942004  0.334547 -0.026602
			-0.960266  0.267063 -0.081036
			-0.951630  0.305534 -0.032395
			-0.936702  0.240506 -0.254454
			-0.906185  0.083755 -0.414504
			-0.772595  0.255858 -0.581062
			-0.971772  0.142764 -0.187824
			-0.947476  0.119700 -0.296582
			-0.924249  0.249228 -0.289222
			-0.981698  0.084197 -0.170822
			-0.724669  0.294796 -0.622856
			-0.800967  0.063244 -0.595358
			-0.893757  0.435714  0.106546
			-0.948667  0.236186  0.210350
			-0.776517 -0.160649 -0.609273
			 0.499944  0.605359 -0.619351
			 0.434850  0.685733 -0.583674
			 0.581723  0.411809 -0.701436
			 0.425698  0.657458 -0.621716
			 0.622565  0.430845 -0.653288
			 0.606593  0.482085 -0.632170
			 0.481257  0.267912 -0.834634
			 0.533807  0.436405 -0.724294
			 0.481485  0.109913 -0.869535
			 0.347147 -0.104068 -0.932019
			 0.432403 -0.050137 -0.900285
			 0.229017 -0.219691 -0.948307
			-0.827940 -0.187955 -0.528383
			-0.874082 -0.266317 -0.406271
			-0.869280 -0.147706 -0.471737
			-0.910648 -0.228412 -0.344307
			-0.839014 -0.143883 -0.524741
			-0.855697 -0.358408 -0.373264
			-0.870919 -0.343599 -0.351341
			-0.893656 -0.306960 -0.327344
			-0.857045 -0.267025 -0.440649
			-0.860351 -0.173151 -0.479391
			-0.858169 -0.305034 -0.412917
			-0.940067 -0.202792 -0.274135
			-0.929757 -0.269373 -0.250979
			-0.677377 -0.087505 -0.730414
			-0.779067 -0.105641 -0.617977
			-0.800515 -0.112191 -0.588718
			-0.052668 -0.151740 -0.987016
			 0.017860 -0.168032 -0.985620
			-0.042018 -0.078629 -0.996018
			 0.220394 -0.289008 -0.931612
			-0.030309 -0.225085 -0.973868
			-0.207985 -0.075560 -0.975209
			-0.744193 -0.075687 -0.663663
			-0.372815 -0.039548 -0.927063
			-0.799435 -0.049742 -0.598690
			-0.807151 -0.067326 -0.586494
			-0.664203 -0.056643 -0.745403
			 0.970883  0.076124 -0.227136
			 0.995899  0.043795 -0.079160
			-0.213694  0.971622 -0.101415
			-0.244887  0.931023  0.270604
			-0.121579  0.992387  0.019667
			 0.013540  0.949689  0.312902
			 0.040224  0.921232  0.386929
			 0.113209  0.876840  0.467264
			-0.056634  0.961977  0.267193
			-0.008374  0.909392  0.415856
			-0.023684  0.906114  0.422370
			-0.003366  0.966707  0.255865
			 0.099568  0.857983 -0.503937
			 0.067047  0.710040 -0.700962
			-0.118298  0.659075 -0.742715
			-0.107280  0.660637 -0.743001
			-0.056677  0.520217 -0.852151
			-0.074455  0.449583 -0.890130
			-0.318365  0.353368 -0.879645
			-0.437811  0.590656 -0.677825
			 0.294105  0.627236 -0.721164
			-0.337803  0.625408 -0.703388
			-0.440846  0.405331 -0.800851
			 0.588425  0.379571 -0.713921
			 0.384002  0.903052  0.192460
			 0.178307  0.792156  0.583691
			-0.307632  0.369561  0.876805
			-0.258504  0.543769  0.798430
			 0.328565  0.944453 -0.007299
			 0.081156  0.822293 -0.563248
			 0.905467  0.338903 -0.255489
			-0.505990  0.825339  0.250578
			 0.493494  0.802963 -0.334236
			 0.040135  0.989178  0.141124
			 0.252180  0.916620  0.310184
			-0.186873  0.980375  0.062789
			 0.090696  0.993110  0.074209
			 0.801158  0.598317  0.012744
			 0.803724  0.593809  0.037670
			-0.445538  0.886511  0.124877
			-0.170245  0.984920  0.030816
			-0.237805  0.962607  0.129753
			-0.422119  0.888948  0.177727
			 0.649899  0.759594  0.025462
			-0.624847  0.737520  0.256183
			-0.723956  0.608617  0.324768
			-0.618017  0.729649  0.292691
			-0.851458  0.426617  0.304986
			-0.788646  0.495582  0.363917
			-0.957910  0.214429  0.190863
			-0.957804  0.181118  0.223178
			-0.983938  0.005315  0.178433
			-0.978232 -0.031128 -0.205169
			-0.930605 -0.111385 -0.348666
			-0.971624 -0.164026 -0.170419
			-0.980282 -0.129892 -0.148911
			-0.985553 -0.166565  0.030699
			-0.871377 -0.216619 -0.440202
			-0.914726  0.280411  0.290939
			-0.887283  0.237466  0.395397
			-0.874561 -0.005514  0.484884
			-0.902042  0.059096  0.427583
			-0.891620  0.094670  0.442776
			 0.621783  0.576690 -0.529918
			 0.537649  0.671206 -0.510310
			 0.556424  0.718753 -0.416876
			 0.619618  0.528585 -0.580233
			 0.551146  0.574613 -0.605027
			 0.647891  0.425505 -0.631809
			 0.637346  0.430874 -0.638856
			 0.660640  0.465862 -0.588666
			 0.604516  0.430500 -0.670246
			 0.704845  0.465355 -0.535386
			 0.594223  0.285078 -0.752084
			 0.569971  0.066156 -0.818997
			 0.655358  0.240653 -0.715955
			 0.541749 -0.095472 -0.835101
			 0.563241 -0.209348 -0.799333
			 0.490650 -0.258864 -0.832017
			 0.530440 -0.217073 -0.819459
			-0.876348 -0.324850 -0.355650
			-0.866369 -0.242785 -0.436417
			-0.923802 -0.281866 -0.259117
			-0.897128 -0.376812 -0.230593
			-0.891817 -0.371323 -0.258420
			-0.946302 -0.147321 -0.287765
			-0.876312 -0.430408 -0.216394
			-0.927593 -0.370097 -0.050975
			-0.945331 -0.278317 -0.169969
			-0.900495 -0.387572 -0.197224
			-0.890131 -0.396597 -0.224448
			-0.929932 -0.308549 -0.200058
			-0.888985 -0.389566 -0.240717
			-0.899540 -0.389525 -0.197734
			-0.888433 -0.410157  0.206055
			-0.918884 -0.309514  0.244650
			 0.185585 -0.179519 -0.966091
			 0.149232 -0.202915 -0.967758
			 0.321428 -0.158809 -0.933522
			 0.167909 -0.082959 -0.982306
			 0.118588 -0.056557 -0.991331
			-0.114103 -0.067099 -0.991200
			 0.422415 -0.210199 -0.881693
			-0.125562 -0.036000 -0.991432
			-0.951144 -0.078771 -0.298530
			-0.401214 -0.008611 -0.915944
			-0.234625 -0.006502 -0.972064
			-0.925788 -0.017511 -0.377637
			-0.812266 -0.054224 -0.580761
			-0.965338 -0.073604 -0.250408
			-0.539489 -0.015489 -0.841850
			-0.713038 -0.066502 -0.697964
			-0.605789 -0.016584 -0.795452
			-0.799576 -0.054764 -0.598063
			-0.871248 -0.053906 -0.487874
			 0.865726  0.243495 -0.437297
			 0.171327  0.938500 -0.299776
			-0.022662  0.993259  0.113679
			 0.217948  0.957060 -0.191143
			 0.235756  0.971808 -0.002773
			 0.280091  0.941008  0.189875
			 0.196778  0.909508  0.366160
			 0.387726  0.897490  0.210192
			 0.340708  0.859680  0.380617
			 0.106917  0.873125  0.475628
			 0.524432  0.742670  0.416428
			 0.359741  0.825960  0.434023
			 0.438236  0.793296  0.422648
			 0.111446  0.917897  0.380849
			-0.002133  0.872121  0.489285
			 0.435579  0.723725 -0.535251
			 0.441036  0.604108 -0.663732
			 0.187621  0.628813 -0.754581
			 0.043121  0.624425 -0.779893
			-0.005252  0.540853 -0.841101
			-0.132881  0.604413 -0.785511
			-0.197357  0.556613 -0.806989
			-0.307248  0.543367 -0.781250
			-0.341214  0.402916 -0.849253
			-0.115421  0.430408 -0.895225
			 0.303263  0.522941 -0.796595
			-0.217058  0.516612 -0.828250
			 0.481208  0.841546 -0.245437
			 0.477066  0.873070 -0.100778
			-0.430943  0.901492  0.040005
			 0.087139  0.995329  0.041550
			-0.537315  0.444342  0.716835
			-0.694132  0.620454  0.364989
			 0.055517  0.665300 -0.744510
			-0.456244  0.580997 -0.674007
			-0.808544  0.588434 -0.001482
			-0.105312  0.991369  0.078079
			-0.069525  0.975722  0.207686
			 0.180585  0.956273  0.230067
			 0.204903  0.873856  0.440899
			 0.398843  0.851154  0.341263
			 0.390106  0.749719  0.534545
			 0.226825  0.889474  0.396720
			 0.420752  0.772922  0.474930
			 0.382196  0.754945  0.532902
			-0.617234  0.699752  0.359680
			-0.245883  0.924298  0.291915
			-0.402319  0.833704  0.378256
			-0.431798  0.833451  0.344834
			-0.580129  0.663498  0.472463
			-0.704201  0.540294  0.460633
			-0.734404  0.429191  0.525781
			-0.721383  0.469633  0.508972
			-0.797920  0.247982  0.549390
			-0.843325  0.195491  0.500586
			-0.869290 -0.006841  0.494256
			-0.932094  0.021523  0.361578
			-0.949959 -0.219874  0.221886
			-0.911912 -0.191631  0.362896
			-0.950626 -0.298475 -0.084984
			-0.952050 -0.283524 -0.114959
			-0.940687 -0.323815 -0.101252
			-0.955224 -0.290183 -0.057804
			-0.789363  0.014431  0.613757
			-0.805073 -0.059160  0.590219
			-0.812826 -0.062426  0.579152
			 0.567764  0.714412 -0.408974
			 0.504145  0.834344 -0.222953
			 0.570847  0.709268 -0.413610
			 0.493358  0.743273 -0.451823
			 0.443388  0.776409 -0.447879
			 0.595011  0.601119 -0.533496
			 0.780438  0.418209 -0.464778
			 0.773780  0.456882 -0.438774
			 0.685567  0.361781 -0.631754
			 0.800327  0.323689 -0.504679
			 0.751013  0.293780 -0.591331
			 0.822908  0.417488 -0.385391
			 0.693545  0.058161 -0.718061
			 0.676790 -0.146100 -0.721533
			 0.793327  0.065952 -0.605213
			 0.677009 -0.280625 -0.680374
			 0.614919 -0.316851 -0.722136
			 0.604873 -0.266965 -0.750239
			-0.927113 -0.296652 -0.229039
			-0.900889 -0.361911 -0.239625
			-0.966327 -0.172524 -0.190911
			-0.904709 -0.422413 -0.055392
			-0.920998 -0.370458 -0.120510
			-0.977395 -0.087314 -0.192547
			-0.993922 -0.109943  0.005607
			-0.952485 -0.157103  0.260944
			-0.963311 -0.169444 -0.208137
			-0.981328  0.073964 -0.177550
			-0.906418 -0.364529 -0.213366
			-0.901437 -0.423648 -0.089077
			-0.865365 -0.499563  0.039749
			-0.572299 -0.356662  0.738421
			-0.411561 -0.638503  0.650332
			-0.569621 -0.214783  0.793347
			 0.662511 -0.153648 -0.733124
			 0.377149 -0.161149 -0.912025
			 0.570438 -0.097126 -0.815578
			 0.348077 -0.049368 -0.936165
			 0.061824 -0.045674 -0.997042
			 0.364429 -0.031135 -0.930711
			-0.182257 -0.087050 -0.979390
			-0.135901 -0.085322 -0.987042
			 0.025603 -0.027840 -0.999285
			-0.052953  0.009162 -0.998555
			-0.113833  0.023686 -0.993217
			-0.334164  0.007987 -0.942481
			-0.989196  0.013913 -0.145937
			-0.998038 -0.021864 -0.058666
			-0.973960 -0.025981 -0.225228
			-0.990454 -0.074841 -0.115761
			-0.996421 -0.084486 -0.002570
			-0.677870 -0.049642 -0.733504
			-0.721134 -0.030689 -0.692116
			-0.394196 -0.000376 -0.919026
			-0.522040 -0.028042 -0.852460
			-0.978228 -0.022970 -0.206259
			-0.967382 -0.067333 -0.244212
			 0.474515  0.764634 -0.436086
			 0.503908  0.808396 -0.304256
			 0.402998  0.914677 -0.030956
			 0.581229  0.812706 -0.041005
			 0.516273  0.822159  0.239825
			 0.654141  0.752865  0.072758
			 0.641129  0.719287  0.267545
			 0.347056  0.799159  0.490812
			 0.173368  0.829197  0.531391
			 0.649708  0.679406  0.341009
			 0.785189  0.557764  0.269030
			 0.666162  0.650971  0.363956
			 0.153790  0.871968  0.464779
			 0.020135  0.830681  0.556385
			 0.069737  0.804865  0.589347
			 0.540648  0.565179 -0.623115
			 0.614864  0.548924 -0.566238
			 0.615387  0.625732 -0.479331
			 0.516505  0.611425 -0.599485
			 0.019384  0.647743 -0.761612
			 0.315755  0.652118 -0.689232
			 0.208390  0.621351 -0.755312
			 0.190302  0.578181 -0.793405
			-0.046009  0.568501 -0.821395
			-0.123729  0.490721 -0.862487
			-0.465538  0.421205 -0.778371
			-0.160321  0.491329 -0.856092
			-0.681072  0.396339 -0.615675
			-0.140607  0.827939 -0.542906
			 0.292848  0.926833 -0.234990
			 0.074157  0.902859 -0.423492
			-0.278118  0.887243  0.368037
			-0.032572  0.928089  0.370930
			-0.252245  0.818308  0.516473
			 0.060617  0.904185  0.422819
			 0.292121  0.821508  0.489684
			 0.055754  0.745651  0.664000
			-0.114122  0.709530  0.695373
			 0.418304  0.735905  0.532415
			 0.398938  0.519151  0.755864
			 0.434039  0.716935  0.545540
			 0.389178  0.593054  0.704860
			 0.419457  0.602275  0.679206
			 0.426220  0.609519  0.668448
			 0.308554  0.768294  0.560819
			 0.561749  0.608843  0.560132
			 0.605286  0.509331  0.611727
			 0.538968  0.689976  0.483164
			 0.613600  0.598227  0.515383
			 0.482169  0.592445  0.645385
			 0.642672  0.499019  0.581337
			-0.717042  0.441298  0.539543
			-0.440019  0.727925  0.525841
			-0.466640  0.651335  0.598339
			-0.547038  0.607831  0.575578
			-0.658899  0.387936  0.644482
			-0.718393  0.265395  0.643021
			-0.684146  0.205748  0.699723
			-0.726994  0.101362  0.679121
			-0.865085 -0.177634  0.469121
			-0.929103 -0.368785 -0.027662
			-0.881977 -0.283687  0.376348
			-0.920285 -0.359884  0.153490
			-0.890380 -0.446491 -0.088710
			-0.683980  0.015496  0.729336
			-0.752145 -0.070639  0.655200
			-0.723480 -0.068071  0.686981
			-0.695654 -0.054312  0.716322
			-0.819964 -0.073966  0.567617
			 0.288884  0.864415 -0.411500
			 0.370461  0.704669 -0.605145
			 0.496684  0.771385 -0.397832
			 0.543977  0.794031 -0.271301
			 0.600735  0.678789 -0.422331
			 0.882126  0.347629 -0.317816
			 0.921538  0.325002 -0.212466
			 0.701226  0.658896 -0.272282
			 0.846790  0.441488 -0.296706
			 0.895339  0.284459 -0.342713
			 0.919173  0.069310 -0.387708
			 0.839983  0.089620 -0.535160
			 0.781593 -0.163293 -0.602037
			 0.748596 -0.310682 -0.585731
			 0.886670 -0.113037 -0.448374
			 0.864685 -0.216385 -0.453318
			 0.737437 -0.277575 -0.615743
			-0.938839 -0.262365 -0.223037
			-0.972303 -0.184691 -0.143237
			-0.897031 -0.441741  0.014166
			-0.884267 -0.460536  0.077316
			-0.908334 -0.408678  0.088950
			-0.930547 -0.342118  0.130526
			-0.958050 -0.286597 -0.001187
			-0.995609 -0.093101  0.009764
			-0.915343  0.219850  0.337362
			-0.957159  0.072473 -0.280346
			-0.975387 -0.203366  0.085216
			-0.993122 -0.115592 -0.018648
			-0.966970 -0.253019  0.030812
			-0.902132  0.363321 -0.232712
			-0.928227 -0.361761 -0.086734
			-0.894575 -0.446145  0.026273
			-0.908990 -0.402361  0.108823
			-0.900383 -0.405653  0.157339
			-0.627007 -0.778953 -0.009755
			-0.046790 -0.991718  0.119609
			-0.195257 -0.920220  0.339219
			-0.664498 -0.244813  0.706052
			 0.838253 -0.157482 -0.522046
			 0.776660 -0.092324 -0.623117
			 0.854708 -0.131182 -0.502261
			 0.530023 -0.026435 -0.847571
			 0.720373 -0.031354 -0.692878
			 0.271372 -0.012452 -0.962394
			 0.499597  0.012512 -0.866168
			 0.497952 -0.062927 -0.864919
			 0.259750  0.022218 -0.965420
			 0.088943  0.018814 -0.995859
			-0.112605  0.029021 -0.993216
			 0.220321  0.030535 -0.974949
			-0.998420 -0.036391  0.042805
			-0.996502 -0.082212 -0.015006
			-0.999301 -0.030812  0.021183
			-0.996085 -0.079508  0.038633
			-0.992925 -0.074870 -0.092170
			-0.900757 -0.054188 -0.430929
			-0.761949 -0.018366 -0.647376
			-0.693110 -0.071238 -0.717303
			-0.166182  0.014331 -0.985991
			-0.455702 -0.045292 -0.888979
			-0.996470 -0.048723 -0.068371
			-0.994104 -0.065054 -0.086747
			 0.590216  0.571887 -0.569728
			 0.718523  0.633095 -0.287950
			 0.749929  0.657225 -0.075248
			 0.771244  0.631609  0.079075
			 0.858833  0.497484  0.122129
			 0.567987  0.652599  0.501503
			 0.390937  0.729680  0.561013
			 0.907529  0.400803  0.125495
			 0.781167  0.532929  0.325217
			 0.187122  0.778871  0.598619
			 0.397747  0.691719  0.602761
			 0.754311  0.546156 -0.364320
			 0.618019  0.718751 -0.318510
			 0.475466  0.617592 -0.626507
			 0.165739  0.560586 -0.811341
			-0.049713  0.463780 -0.884555
			 0.107594  0.593519 -0.797595
			 0.265310  0.784780 -0.560117
			-0.110190  0.809545  0.576623
			-0.263571  0.694978  0.668982
			-0.464830  0.503226  0.728489
			 0.265466  0.713479  0.648441
			 0.022350  0.678554  0.734210
			-0.197769  0.553002  0.809368
			-0.358073  0.392685  0.847102
			-0.299854  0.589422  0.750113
			 0.289795  0.551466  0.782243
			 0.309173  0.271635  0.911387
			 0.365211  0.353201  0.861319
			 0.334003  0.375131  0.864707
			 0.459964  0.573651  0.677759
			 0.539596  0.498369  0.678576
			 0.436874  0.411819  0.799717
			 0.482626  0.433008  0.761299
			 0.495652  0.419974  0.760231
			 0.514983  0.589064  0.622733
			 0.672514  0.387402  0.630591
			 0.635923  0.542876  0.548531
			 0.729873  0.320906  0.603576
			 0.760967  0.270924  0.589517
			 0.702910  0.352065  0.618035
			 0.702390  0.430552  0.566810
			-0.581942  0.414348  0.699757
			-0.573056  0.262855  0.776218
			-0.684938  0.100455  0.721643
			-0.572625  0.038305  0.818922
			-0.929621 -0.344746  0.130209
			-0.895320 -0.261497  0.360585
			-0.501842 -0.771366 -0.391342
			-0.900067 -0.411847 -0.142342
			-0.869837 -0.433715 -0.235104
			-0.634002 -0.012473  0.773231
			-0.716311 -0.019980  0.697496
			-0.744242  0.025155  0.667436
			-0.707063 -0.071201  0.703557
			-0.755775 -0.150376  0.637332
			-0.777612 -0.263545  0.570845
			 0.705566  0.700057 -0.109986
			 0.962504  0.255447 -0.091285
			 0.925114  0.312125 -0.216200
			 0.975683  0.215595 -0.039515
			 0.999732  0.011113 -0.020297
			 0.973106  0.088553 -0.212657
			 0.744682  0.635196 -0.204877
			 0.862214  0.465543 -0.199642
			 0.955930 -0.242197 -0.165947
			 0.842679 -0.340803 -0.416827
			 0.847568 -0.259673 -0.462816
			 0.888294 -0.294141 -0.352725
			 0.889291 -0.385864 -0.245501
			-0.992968 -0.117040  0.017812
			-0.972090 -0.232145  0.033900
			-0.863647 -0.424384  0.272051
			-0.870750 -0.443441  0.212496
			-0.898620 -0.405665  0.167088
			-0.825033 -0.478852  0.300035
			-0.920174 -0.349861  0.175721
			-0.942850 -0.285682  0.171520
			-0.954307 -0.225564  0.196009
			-0.998849 -0.033144 -0.034684
			-0.978326  0.199115  0.056855
			-0.774838  0.607775 -0.173882
			-0.777120  0.439548 -0.450424
			-0.963591  0.000857 -0.267380
			-0.975329 -0.213531 -0.056020
			-0.924019 -0.366303  0.109598
			-0.865186 -0.467047  0.182540
			-0.858652 -0.356309  0.368456
			-0.879156 -0.423435  0.218602
			-0.021555 -0.776820 -0.629354
			-0.367092 -0.817389 -0.443980
			-0.894680 -0.421284  0.148549
			 0.935314 -0.160460 -0.315342
			 0.873272 -0.072247 -0.481846
			 0.903836 -0.162077 -0.395993
			 0.698242  0.014905 -0.715707
			 0.742618  0.001097 -0.669714
			 0.866334  0.017270 -0.499167
			 0.524689  0.036087 -0.850529
			 0.356636  0.017521 -0.934079
			 0.101559  0.051613 -0.993490
			 0.020791  0.055143 -0.998262
			 0.457547  0.019132 -0.888980
			 0.396642  0.074433 -0.914951
			 0.305610  0.067598 -0.949754
			-0.997943 -0.044192  0.046437
			-0.999488 -0.011892  0.029716
			-0.989433 -0.046055  0.137481
			-0.989263 -0.117920  0.086329
			-0.994955 -0.061184  0.079500
			-0.949172 -0.020614 -0.314082
			-0.824932 -0.060290 -0.562008
			-0.932558 -0.031185 -0.359670
			-0.852304 -0.060623 -0.519522
			-0.578131 -0.082295 -0.811783
			-0.667554 -0.084185 -0.739787
			-0.247222 -0.025652 -0.968619
			 0.071910  0.031353 -0.996918
			-0.366246 -0.036643 -0.929796
			-0.490967 -0.072338 -0.868170
			-0.998924 -0.010730 -0.045123
			-0.998507 -0.006527 -0.054240
			 0.721796  0.506370 -0.471806
			 0.795816  0.585300 -0.155244
			 0.868607  0.453609 -0.199401
			 0.847568  0.450589 -0.280353
			 0.887063  0.457089 -0.064730
			 0.859501  0.362999  0.359847
			 0.631629  0.568688  0.526915
			 0.888811  0.402445  0.219209