<?xml version="1.0"?>
<VTKFile type="PolyData" version="0.1" byte_order="LittleEndian" compressor="vtkZLibDataCompressor">
	<PolyData>
		<Piece NumberOfPoints="1851" NumberOfVerts="0" NumberOfLines="0" NumberOfStrips="0" NumberOfPolys="3698">
		<PointData Normals="Normals">
		<DataArray type="Float32" Name="Normals" NumberOfComponents="3" format="ascii">
			-0.975794 -0.189789  0.108661
			-0.970998  0.000254  0.239089
			-0.996025 -0.089052 -0.001827
			-0.955735 -0.273374 -0.108802
			-0.930720 -0.018271  0.365275
			-0.926471 -0.335521 -0.170520
			-0.931896 -0.327467 -0.155996
			-0.970776 -0.095820  0.220027
			-0.962885 -0.269821  0.007082
			-0.994764  0.084396  0.057632
			-0.922002  0.154915  0.354842
			-0.971052  0.173905  0.163754
			-0.951558  0.017185 -0.306988
			-0.934874 -0.161746 -0.315987
			-0.863594 -0.333847 -0.377824
			-0.881544  0.133538  0.452821
			-0.920535 -0.049974  0.387450
			-0.928565  0.031041  0.369869
			-0.892842  0.097047  0.439789
			-0.809354 -0.387597 -0.441265
			-0.811160 -0.422922 -0.403926
			-0.910231 -0.353981 -0.214888
			-0.978854 -0.203779  0.017881
			-0.968783 -0.015889  0.247399
			-0.946805  0.019777  0.321199
			-0.984606  0.154879 -0.081013
			-0.843416  0.170439  0.509510
			-0.878348  0.235510  0.415982
			-0.890773  0.270008  0.365539
			-0.943531  0.224149  0.243940
			-0.975265  0.205636  0.081067
			-0.770062 -0.056675 -0.635447
			-0.836629 -0.099172 -0.538718
			-0.823584  0.003293 -0.567186
			-0.944311  0.092715 -0.315722
			-0.796735 -0.211777 -0.566008
			-0.674500 -0.375991 -0.635359
			-0.820555  0.176088  0.543767
			-0.960417  0.097470  0.260956
			-0.874906  0.146791  0.461510
			-0.947971  0.140552  0.285651
			-0.818666  0.144339  0.555835
			-0.893419  0.154795  0.421712
			-0.878514  0.139124  0.457009
			-0.683483 -0.378053 -0.624442
			-0.675216 -0.404247 -0.616982
			-0.786126 -0.419035 -0.454330
			-0.896113 -0.375238 -0.237017
			-0.975322 -0.219626 -0.022604
			-0.995274 -0.032552  0.091485
			-0.968397  0.180707 -0.171909
			-0.849236  0.160225  0.503116
			-0.899901  0.147027  0.410562
			-0.827041  0.367027  0.425787
			-0.872919  0.167674  0.458146
			-0.826278  0.274800  0.491680
			-0.875086  0.358108  0.325550
			-0.934927  0.258568  0.243011
			-0.948855  0.312639  0.043948
			-0.586005 -0.193567 -0.786848
			-0.562939 -0.095338 -0.820981
			-0.681635 -0.025719 -0.731240
			-0.892629  0.109470 -0.437299
			-0.529796 -0.342029 -0.776101
			-0.975558  0.079817  0.204735
			-0.901052  0.113642  0.418559
			-0.873073  0.155479  0.462135
			-0.899943  0.151255  0.408930
			-0.866025  0.176169  0.467936
			-0.817074  0.138625  0.559618
			-0.886405  0.141420  0.440780
			-0.860012  0.167907  0.481858
			-0.697569 -0.375522 -0.610230
			-0.442250 -0.334995 -0.831982
			-0.747480 -0.456139 -0.482919
			-0.979898 -0.188765 -0.064555
			-0.865552 -0.391808 -0.311940
			-0.753355 -0.491133 -0.437316
			-0.942376 -0.317709 -0.104829
			-0.996689 -0.080704  0.009900
			-0.973477 -0.226210  0.034243
			-0.980919 -0.154375  0.118183
			-0.831061  0.098498 -0.547390
			-0.885708  0.175798 -0.429671
			-0.946654  0.236633 -0.218748
			-0.830555  0.444684  0.335313
			-0.779633  0.465365  0.419055
			-0.810599  0.323939  0.487845
			-0.777717  0.360920  0.514677
			-0.828449  0.213202  0.517897
			-0.742541  0.286408  0.605478
			-0.876260  0.428326  0.220692
			-0.940534  0.249465 -0.230571
			-0.904686  0.422744 -0.053212
			-0.898958  0.421563  0.118991
			-0.926150  0.281241 -0.251294
			-0.339969 -0.235918 -0.910365
			-0.281734 -0.177663 -0.942901
			-0.374504 -0.106043 -0.921141
			-0.562463 -0.032613 -0.826179
			-0.783403  0.052048 -0.619331
			-0.677665  0.030649 -0.734732
			-0.330016 -0.315037 -0.889855
			-0.963430 -0.130582  0.233988
			-0.947405 -0.061745  0.314024
			-0.813711  0.023194  0.580807
			-0.883260 -0.197636  0.425197
			-0.843806 -0.150420  0.515136
			-0.819617  0.021941  0.572492
			-0.784993  0.016432  0.619287
			-0.858446  0.173670  0.482607
			-0.850091  0.186685  0.492437
			-0.850214  0.194990  0.488994
			-0.753231  0.171067  0.635122
			-0.490569 -0.408992 -0.769459
			-0.633552 -0.485408 -0.602487
			-0.133895 -0.253746 -0.957959
			-0.192300 -0.343005 -0.919439
			-0.247859 -0.417759 -0.874096
			-0.674759 -0.498998 -0.543784
			-0.776226 -0.477118 -0.412106
			-0.864116 -0.406404 -0.296881
			-0.533560 -0.547447 -0.644683
			-0.551573 -0.636023 -0.539669
			-0.680294 -0.590949 -0.433565
			-0.900031 -0.435384 -0.019600
			-0.826884 -0.510113 -0.236742
			-0.919365 -0.390016  0.051531
			-0.914052 -0.314765  0.255797
			-0.569467 -0.038852 -0.821096
			-0.680833  0.061523 -0.729851
			-0.906205  0.263763 -0.330486
			-0.776445  0.225918 -0.588297
			-0.803237  0.485792  0.344698
			-0.829071  0.482450  0.282637
			-0.753645  0.531650  0.386481
			-0.717008  0.486973  0.498755
			-0.729795  0.362509  0.579644
			-0.593042  0.469332  0.654239
			-0.789493  0.270900  0.550739
			-0.765347  0.279731  0.579650
			-0.818459  0.226068  0.528221
			-0.726604  0.254062  0.638357
			-0.689273  0.277257  0.669351
			-0.878993  0.470489  0.077531
			-0.840016  0.505840  0.196215
			-0.865185  0.366866 -0.341855
			-0.862625  0.475547 -0.172435
			-0.833361  0.262197 -0.486582
			-0.056943 -0.182082 -0.981633
			-0.021603 -0.204609 -0.978605
			-0.200034 -0.187032 -0.961772
			-0.346823 -0.121943 -0.929970
			-0.108470 -0.165666 -0.980198
			-0.716182 -0.214936  0.663993
			-0.752889 -0.064470  0.654983
			-0.805379 -0.339072  0.486204
			-0.793059 -0.490877  0.360691
			-0.728307 -0.265443  0.631750
			 0.286884  0.339591  0.895754
			-0.762999  0.220451  0.607646
			 0.304738  0.378535  0.873983
			-0.803958  0.136964  0.578699
			-0.352509 -0.502202 -0.789640
			-0.255327 -0.474283 -0.842534
			-0.483235 -0.533689 -0.694017
			 0.156927 -0.317841 -0.935067
			 0.068338 -0.331937 -0.940823
			 0.020437 -0.424616 -0.905143
			 0.000235 -0.477477 -0.878644
			-0.681618 -0.575549 -0.451820
			-0.771176 -0.516108 -0.372721
			-0.214111 -0.663555 -0.716835
			-0.200809 -0.612915 -0.764206
			-0.314822 -0.723209 -0.614700
			-0.454183 -0.697731 -0.553975
			-0.819894 -0.570337 -0.049899
			-0.657944 -0.629332 -0.413584
			-0.778337 -0.579896 -0.240648
			-0.842539 -0.513343  0.163116
			-0.460799 -0.066330 -0.885023
			-0.658461  0.099932 -0.745951
			-0.783558  0.565431  0.257535
			-0.744448  0.599950  0.293013
			-0.674396  0.611217  0.414251
			-0.650286  0.673041  0.352340
			-0.716435  0.400176  0.571471
			-0.579012  0.482952  0.656888
			-0.638170  0.580955  0.505204
			 0.745723  0.366270  0.556547
			-0.607225  0.377249  0.699258
			 0.748164  0.328215  0.576651
			-0.783548  0.240991  0.572692
			-0.753088  0.229325  0.616660
			-0.771300  0.240988  0.589086
			-0.778807  0.322263  0.538151
			-0.755161  0.236728  0.611303
			-0.833504  0.528333 -0.161661
			-0.809399  0.580062  0.091658
			-0.785304  0.599459  0.154747
			-0.821175  0.223560 -0.525065
			-0.770148  0.452949 -0.449120
			-0.749688  0.306692 -0.586436
			 0.063308 -0.227012 -0.971832
			 0.020467 -0.136111 -0.990482
			 0.024800 -0.204246 -0.978606
			 0.163447 -0.274320 -0.947646
			-0.210158 -0.165914 -0.963487
			-0.011121 -0.335042 -0.942137
			-0.083686 -0.213195 -0.973419
			-0.176671 -0.256521 -0.950255
			-0.653135 -0.410419  0.636373
			-0.650579 -0.315802  0.690663
			-0.693010 -0.213989  0.688437
			-0.747272 -0.015620  0.664335
			-0.688443 -0.126293  0.714210
			-0.699018 -0.495437  0.515671
			-0.621085 -0.610584  0.491366
			-0.745789 -0.597830  0.293937
			 0.967552  0.076086  0.240945
			-0.821187  0.195270  0.536210
			-0.778550  0.134485  0.613004
			-0.159492 -0.569812 -0.806149
			-0.059939 -0.536700 -0.841642
			 0.251741 -0.417755 -0.872987
			 0.441062 -0.384587 -0.810899
			 0.262765 -0.525392 -0.809270
			-0.450491 -0.671181 -0.588706
			-0.419444 -0.691300 -0.588362
			-0.185102 -0.732679 -0.654919
			 0.102442 -0.633220 -0.767163
			 0.067302 -0.695933 -0.714946
			-0.140045 -0.730655 -0.668230
			-0.692815 -0.612181 -0.381106
			-0.585399 -0.801924 -0.119269
			-0.680842 -0.685989 -0.256658
			-0.802451 -0.583266  0.125992
			-0.539144 -0.679785 -0.497208
			-0.245247 -0.107312 -0.963503
			-0.498154 -0.037352 -0.866284
			-0.696811  0.182765 -0.693579
			-0.485799  0.107246 -0.867466
			-0.699218  0.707861  0.100134
			-0.655847  0.707966  0.262007
			-0.668001  0.725267  0.166622
			-0.548933  0.741670  0.385485
			-0.570918  0.755153  0.322175
			-0.531375  0.771158  0.350649
			 0.376897  0.490297  0.785848
			-0.688498  0.393286  0.609341
			-0.610725  0.640785  0.465199
			-0.642696  0.521451  0.561276
			-0.698969  0.347159  0.625239
			-0.719584  0.257211  0.645013
			-0.738981  0.261063  0.621090
			-0.734267  0.369485  0.569503
			-0.842467  0.167395  0.512083
			-0.713137  0.267604  0.647938
			-0.750680  0.431334  0.500430
			-0.736146  0.394520  0.549948
			-0.755195  0.400927 -0.518593
			-0.799373  0.581219 -0.152271
			-0.756876  0.653405 -0.014162
			-0.636312  0.302731 -0.709550
			 0.281099 -0.363177 -0.888305
			-0.152182 -0.395090 -0.905949
			 0.112502 -0.506412 -0.854922
			 0.303091 -0.493908 -0.814979
			-0.151364 -0.167378 -0.974204
			-0.090961 -0.268614 -0.958943
			-0.124780 -0.121043 -0.984773
			-0.560702 -0.503937  0.657010
			-0.586825 -0.549430  0.594779
			-0.554571 -0.499318  0.665682
			-0.573732 -0.398715  0.715443
			-0.725796 -0.081811  0.683028
			-0.754776  0.035863  0.655002
			-0.671685 -0.202202  0.712708
			-0.620647 -0.591099  0.515169
			-0.532984 -0.603117  0.593446
			-0.723517 -0.576812  0.379225
			-0.808438  0.089765  0.581696
			-0.653044  0.162670  0.739643
			-0.761058  0.250897  0.598198
			 0.444716 -0.492054 -0.748405
			 0.604223 -0.452555 -0.655827
			 0.506134 -0.426033 -0.749883
			 0.388473 -0.628215 -0.674118
			-0.146396 -0.718667 -0.679769
			-0.444586 -0.640069 -0.626622
			-0.013974 -0.663963 -0.747635
			-0.145686 -0.650015 -0.745826
			 0.162994 -0.713120 -0.681830
			-0.336782 -0.740394 -0.581716
			 0.750748 -0.617022 -0.235928
			 0.235364 -0.829946 -0.505761
			-0.724130 -0.683324 -0.093292
			-0.743608 -0.651615  0.149817
			-0.752925 -0.583104  0.305114
			-0.246876  0.031300 -0.968541
			-0.536761  0.217954 -0.815097
			-0.706616  0.676912 -0.206116
			-0.643780  0.749929 -0.152162
			-0.613531  0.789391  0.021025
			-0.587818  0.807611 -0.047274
			-0.573001  0.789362  0.220406
			-0.606433  0.794263  0.037226
			-0.399517  0.864383  0.305332
			-0.574182  0.717078  0.395111
			-0.347501  0.881847  0.318731
			-0.465563  0.788643  0.401613
			-0.468759  0.836339  0.284257
			-0.632337  0.436659  0.639905
			-0.692524  0.304443  0.654007
			-0.647119  0.382560  0.659459
			-0.557125  0.609418  0.564112
			-0.534049  0.709653  0.459549
			-0.564948  0.495679  0.659649
			-0.734527  0.358642  0.576061
			-0.716577  0.279849  0.638907
			-0.702243  0.074610  0.708017
			-0.568063  0.529644  0.629906
			-0.559841  0.466108  0.685071
			 0.745402  0.409594  0.525936
			-0.583017  0.350426 -0.733002
			-0.759212  0.570039 -0.314091
			-0.654091  0.509046 -0.559497
			-0.749328  0.610612 -0.256243
			 0.036487 -0.420866 -0.906389
			 0.435356 -0.584207 -0.684958
			 0.224558 -0.570587 -0.789939
			 0.303297 -0.603469 -0.737452
			 0.550881 -0.501459 -0.667135
			-0.025103 -0.191877 -0.981098
			-0.010671 -0.089803 -0.995902
			 0.206984 -0.385257 -0.899297
			 0.146560 -0.290929 -0.945453
			-0.093290 -0.046005 -0.994575
			-0.473517 -0.589906  0.654059
			-0.467830 -0.553842  0.688763
			-0.481422 -0.557605  0.676247
			-0.575114 -0.363073  0.733090
			-0.417178 -0.616103  0.668117
			-0.490153 -0.557899  0.669701
			-0.748158 -0.081933  0.658443
			-0.802816  0.285385  0.523490
			-0.829742 -0.012219  0.558013
			-0.576860 -0.372929  0.726744
			-0.657643 -0.288604  0.695854
			-0.716848 -0.123713  0.686166
			-0.647753 -0.574184  0.500729
			-0.634919 -0.694905  0.337615
			-0.745430  0.392993  0.538415
			 0.514374 -0.580062 -0.631623
			 0.659386 -0.516006 -0.546761
			 0.680643 -0.509663 -0.526278
			 0.571081 -0.599329 -0.560955
			 0.492000 -0.544762 -0.679095
			 0.171421 -0.650504 -0.739905
			-0.176911 -0.648797 -0.740112
			 0.093237 -0.584038 -0.806353
			 0.409978 -0.444713 -0.796334
			 0.778169 -0.544863 -0.312374
			-0.292738 -0.749556 -0.593692
			-0.524562 -0.799553 -0.292488
			-0.321950 -0.742037 -0.587987
			-0.036380 -0.704665 -0.708607
			-0.669403 -0.741725  0.041752
			-0.664903 -0.722223  0.190518
			-0.242837  0.049119 -0.968823
			-0.384458  0.199499 -0.901328
			-0.675924  0.562026 -0.476712
			-0.575971  0.680830 -0.452468
			-0.544394  0.807795 -0.226060
			-0.498313  0.854959  0.143977
			-0.468449  0.875052 -0.121821
			-0.321211  0.925311  0.201550
			-0.261411  0.942543  0.208030
			-0.287197  0.925935  0.245280
			-0.429477  0.804221  0.410827
			-0.203463  0.927276  0.314265
			-0.196984  0.952216  0.233413
			-0.308575  0.859229  0.408054
			-0.391197  0.776299  0.494293
			-0.429808  0.717923  0.547587
			-0.347476  0.928423  0.131499
			-0.397530  0.914361  0.076897
			-0.621611  0.358264  0.696597
			-0.706761  0.272249  0.652970
			-0.456370  0.629249  0.629105
			-0.551777  0.394478  0.734799
			-0.487788  0.501173  0.714765
			-0.642400  0.473714  0.602426
			-0.701051  0.443741  0.558230
			-0.660108  0.260662  0.704495
			-0.674715  0.328800  0.660796
			 0.747020  0.432142  0.505187
			 0.362348  0.593131  0.718957
			-0.460995  0.407800 -0.788151
			-0.699674  0.599308 -0.388956
			 0.483791 -0.647813 -0.588460
			 0.588211 -0.627928 -0.509622
			 0.407580 -0.559402 -0.721767
			 0.461187 -0.632404 -0.622391
			 0.170395 -0.216774 -0.961236
			-0.063898  0.009439 -0.997912
			 0.072662 -0.030003 -0.996905
			-0.185026  0.057156 -0.981070
			 0.154387 -0.124275 -0.980163
			 0.174440 -0.064042 -0.982583
			 0.300384 -0.285216 -0.910177
			-0.365860 -0.570658  0.735184
			-0.305190 -0.715358  0.628587
			-0.106809 -0.733110  0.671671
			-0.384716 -0.735139  0.558180
			-0.225683 -0.646687  0.728604
			-0.512365 -0.683013  0.520553
			-0.262803 -0.670179  0.694114
			-0.492214 -0.536414  0.685554
			-0.250496 -0.741589  0.622332
			-0.344696 -0.704722  0.620122
			-0.235551 -0.764005  0.600677
			-0.376417 -0.740975  0.556117
			-0.715918  0.093761  0.691860
			-0.735821  0.117083  0.666977
			-0.820559  0.162592  0.547947
			-0.709934  0.433091  0.555361
			-0.676209  0.484540  0.554943
			-0.721854  0.462083  0.515176
			-0.624593 -0.191722  0.757051
			-0.590638 -0.201213  0.781448
			-0.522504 -0.444467  0.727625
			-0.678897  0.057073  0.732012
			-0.625583 -0.635976  0.451865
			-0.493158 -0.866748  0.074451
			-0.480172 -0.799723  0.360387
			-0.373200 -0.920632  0.114707
			 0.715147 -0.456895 -0.528973
			 0.707564 -0.451748 -0.543394
			 0.631747 -0.561855 -0.534056
			 0.684923 -0.497388 -0.532434
			 0.639666 -0.624973 -0.447478
			 0.622048 -0.592736 -0.511586
			 0.603924 -0.550847 -0.576058
			 0.611365 -0.477506 -0.631047
			 0.575241 -0.551648 -0.603972
			 0.674928 -0.217929 -0.704967
			-0.006561 -0.639956 -0.768384
			 0.328027 -0.499681 -0.801696
			 0.565780 -0.250054 -0.785726
			-0.559987 -0.827467 -0.041388
			-0.332459 -0.829876 -0.448082
			-0.115102 -0.805260 -0.581642
			-0.290933 -0.868060 -0.402280
			-0.150683 -0.754606 -0.638643
			-0.274554  0.229877 -0.933690
			-0.578349  0.479193 -0.660217
			-0.463454  0.533340 -0.707643
			-0.414895  0.678686 -0.606009
			-0.427399  0.798404 -0.424124
			-0.412491  0.842367 -0.346799
			-0.271974  0.901921 -0.335513
			-0.322306  0.935860 -0.142425
			-0.178678  0.983076  0.040455
			-0.034667  0.986995  0.156966
			-0.203929  0.959437  0.194664
			 0.063296  0.973498  0.219761
			-0.167709  0.934090  0.315197
			 0.648991  0.747273  0.142808
			-0.298392  0.826225  0.477822
			-0.133032  0.889756  0.436619
			-0.353259  0.746640  0.563681
			-0.391767  0.672996  0.627371
			-0.212158  0.970795 -0.112012
			-0.574703  0.337642  0.745462
			-0.399796  0.571407  0.716698
			-0.528541  0.397803  0.749931
			-0.591943  0.415858  0.690410
			-0.645350  0.474818  0.598391
			-0.416514  0.319520 -0.851131
			 0.571821 -0.653501 -0.495941
			 0.459165 -0.589369 -0.664689
			-0.002767  0.062863 -0.998018
			-0.262098  0.209071 -0.942122
			-0.114429  0.105379 -0.987827
			 0.201587 -0.120063 -0.972084
			 0.293478 -0.219965 -0.930315
			 0.239377 -0.052996 -0.969479
			 0.418793 -0.419924 -0.805156
			-0.203457 -0.637989  0.742682
			-0.012075 -0.826825  0.562329
			-0.196845 -0.812728  0.548384
			 0.274023 -0.815952  0.509052
			 0.102647 -0.748425  0.655228
			 0.239084 -0.745415  0.622251
			-0.300228 -0.863148  0.406004
			-0.134772 -0.883437  0.448749
			-0.005787 -0.724163  0.689605
			-0.009295 -0.704487  0.709656
			-0.041150 -0.691095  0.721591
			 0.056225 -0.799200  0.598429
			-0.088445 -0.838517  0.537650
			-0.460440 -0.620850  0.634460
			-0.314361 -0.837908  0.446191
			-0.253014 -0.827504  0.501219
			-0.037359 -0.900400  0.433455
			-0.188642 -0.847019  0.496964
			-0.671832  0.388591  0.630586
			-0.693413  0.347588  0.631158
			-0.582291 -0.059332  0.810813
			-0.604183  0.055588  0.794904
			-0.559415 -0.330667  0.760075
			-0.653462 -0.002386  0.756956
			-0.519511 -0.477919  0.708309
			-0.679796  0.225157  0.697984
			-0.347405 -0.921015 -0.176182
			-0.320830 -0.945898 -0.048431
			-0.232284 -0.962085  0.142956
			-0.151947 -0.965053 -0.213505
			-0.128858 -0.991049 -0.034908
			 0.698894 -0.436418 -0.566644
			 0.719966 -0.434900 -0.540843
			 0.664370 -0.477058 -0.575350
			 0.699305 -0.426999 -0.573275
			 0.687759 -0.481382 -0.543377
			 0.570556 -0.690038 -0.445324
			 0.538586 -0.700887 -0.467635
			 0.504979 -0.648452 -0.569654
			 0.517642 -0.530890 -0.670971
			 0.638423 -0.478945 -0.602518
			 0.637705 -0.397078 -0.660047
			 0.632972 -0.338865 -0.696073
			 0.709432 -0.103627 -0.697114
			 0.683679 -0.061766 -0.727164
			 0.133740 -0.665229 -0.734564
			 0.337892 -0.516977 -0.786488
			 0.588841 -0.288750 -0.754910
			 0.073650 -0.767188 -0.637180
			-0.061384 -0.854187 -0.516331
			-0.042987 -0.797117 -0.602293
			-0.330058  0.453290 -0.828004
			-0.267368  0.783975 -0.560266
			-0.212134  0.604331 -0.767973
			-0.175980  0.474820 -0.862309
			-0.016098  0.867718 -0.496796
			-0.086489  0.948786 -0.303849
			-0.002580  0.983707 -0.179760
			-0.033469  0.997937 -0.054789
			-0.084599  0.993839  0.071598
			 0.811868  0.574432  0.104395
			 0.816114  0.573013  0.074933
			-0.056564  0.987026  0.150266
			-0.022245  0.974096  0.225041
			-0.034158  0.932899  0.358516
			-0.253951  0.797237  0.547651
			-0.015609  0.911821  0.410292
			-0.007689  0.867400  0.497552
			-0.150451  0.799668  0.581288
			-0.317968  0.702648  0.636539
			-0.593915  0.361822  0.718575
			-0.292936  0.577199  0.762253
			-0.321051  0.635943  0.701785
			-0.440542  0.485774  0.754948
			-0.568500  0.480025  0.668120
			-0.474378  0.518064  0.711741
			-0.616456  0.498581  0.609425
			 0.499162 -0.603750 -0.621549
			 0.502845 -0.727966 -0.466061
			-0.169976  0.245552 -0.954365
			-0.014553  0.146499 -0.989104
			-0.144843  0.277716 -0.949681
			 0.114725  0.035652 -0.992757
			 0.224856 -0.011681 -0.974322
			 0.227907 -0.039255 -0.972891
			 0.300784 -0.151093 -0.941647
			 0.270879 -0.193784 -0.942906
			 0.340967 -0.186605 -0.921368
			 0.399948 -0.424050 -0.812542
			 0.283533 -0.005788 -0.958945
			 0.102479 -0.909801  0.402195
			 0.317056 -0.883691  0.344335
			 0.636530 -0.760788  0.126615
			 0.606797 -0.755945  0.245651
			 0.398421 -0.798605  0.451099
			 0.455646 -0.772003  0.443168
			 0.341784 -0.813855  0.469918
			 0.292665 -0.801609  0.521316
			 0.615979 -0.734622  0.284430
			-0.129686 -0.956626  0.260862
			 0.091939 -0.966582  0.239303
			 0.222657 -0.773456  0.593456
			 0.173518 -0.770740  0.613067
			 0.313354 -0.828526  0.464062
			 0.222266 -0.856241  0.466315
			 0.150089 -0.871218  0.467389
			 0.129197 -0.917347  0.376540
			-0.393926 -0.838957  0.375464
			-0.475969 -0.473247  0.741277
			-0.513248 -0.709449  0.482968
			-0.429249 -0.446456  0.785126
			-0.502445 -0.347498  0.791703
			-0.255353 -0.927078  0.274447
			-0.122462 -0.926408  0.356051
			-0.039695 -0.932840  0.358098
			 0.208614 -0.969260  0.130444
			-0.554924  0.101873  0.825640
			-0.572257  0.045910  0.818788
			-0.571521  0.054948  0.818746
			-0.529246 -0.105573  0.841874
			-0.558612  0.377861  0.738359
			-0.468963 -0.235940  0.851121
			 0.102818 -0.993985  0.037705
			 0.110087 -0.993186 -0.038243
			 0.235881 -0.798794 -0.553433
			 0.136495 -0.939460 -0.314299
			 0.633926 -0.413489 -0.653578
			 0.513265 -0.731817 -0.448334
			 0.487041 -0.692461 -0.532250
			 0.423594 -0.627532 -0.653278
			 0.421199 -0.544035 -0.725684
			 0.485905 -0.506995 -0.711935
			 0.697168 -0.086104 -0.711719
			 0.737198 -0.233424 -0.634076
			 0.742932 -0.366210 -0.560306
			 0.703543 -0.090131 -0.704914
			 0.742537 -0.010970 -0.669715
			 0.434261 -0.563015 -0.703159
			 0.525296 -0.555896 -0.644239
			 0.549867 -0.480628 -0.683113
			 0.270440 -0.765268 -0.584147
			-0.010916  0.705134 -0.708990
			 0.039360  0.534229 -0.844423
			 0.014828  0.232360 -0.972517
			 0.080406  0.352968 -0.932174
			 0.063123  0.927279 -0.369012
			 0.157224  0.790816 -0.591515
			 0.199671  0.853341 -0.481602
			 0.116858  0.940247 -0.319812
			 0.182052  0.937610 -0.296218
			 0.124048  0.978086 -0.167210
			 0.081249  0.996282 -0.028639
			 0.140508  0.981670  0.128766
			 0.084231  0.988329  0.126927
			 0.111839  0.948082  0.297713
			 0.000094  0.911643  0.410982
			-0.058128  0.804670  0.590871
			 0.072727  0.876833  0.475262
			 0.120239  0.846459  0.518699
			 0.107266  0.816605  0.567142
			-0.199502  0.715151  0.669894
			-0.030839  0.797108  0.603049
			-0.369407  0.515857  0.772936
			-0.128149  0.685440  0.716763
			-0.273771  0.562723  0.779995
			-0.122288  0.696236  0.707320
			-0.092390  0.685794  0.721908
			-0.504816  0.606423  0.614338
			-0.401368  0.550627  0.731924
			-0.478994  0.546168  0.687215
			 0.424561 -0.771327 -0.474133
			 0.444258 -0.681677 -0.581336
			 0.417542 -0.749725 -0.513393
			 0.176611  0.164704 -0.970403
			 0.267145 -0.023467 -0.963371
			 0.278614  0.080477 -0.957025
			 0.331436 -0.064032 -0.941302
			 0.323044 -0.006260 -0.946363
			 0.409676 -0.245883 -0.878469
			 0.420150 -0.494611 -0.760811
			 0.343404 -0.062615 -0.937098
			 0.355306 -0.001755 -0.934748
			 0.421678  0.022132 -0.906476
			 0.301346 -0.932223  0.200376
			 0.423326 -0.897938  0.120424
			 0.770402 -0.617142 -0.160055
			 0.797347 -0.486531 -0.357106
			 0.602111 -0.784810 -0.146753
			 0.544607 -0.789713  0.282411
			 0.788042 -0.615599 -0.005313
			 0.661332 -0.745922  0.079001
			 0.477611 -0.798083  0.367356
			 0.740422 -0.634539 -0.221666
			 0.301135 -0.952467  0.046088
			 0.407431 -0.874204  0.264135
			 0.533868 -0.815790  0.222423
			 0.339118 -0.917132  0.209446
			-0.341217 -0.932467  0.118645
			-0.409360 -0.440835  0.798805
			-0.509058 -0.679065  0.528896
			-0.577639 -0.478615  0.661257
			-0.463834 -0.845453  0.264703
			-0.421567 -0.288896  0.859546
			-0.388432 -0.400525  0.829880
			-0.508804 -0.441856  0.738838
			-0.372616 -0.331330  0.866820
			-0.416424 -0.280419  0.864845
			-0.060017 -0.992763  0.104014
			 0.036104 -0.980270  0.194340
			 0.498227 -0.836321 -0.228773
			 0.221351 -0.903411 -0.367223
			 0.115727 -0.992020 -0.050039
			-0.554298  0.261748  0.790089
			-0.514323  0.011650  0.857518
			-0.525559  0.214097  0.823377
			-0.503509 -0.020111  0.863756
			 0.428889 -0.890567 -0.151472
			 0.410455 -0.843352 -0.346820
			 0.389922 -0.711549 -0.584516
			 0.624640 -0.548063 -0.556284
			 0.723887 -0.496036 -0.479516
			 0.366493 -0.655299 -0.660504
			 0.336622 -0.576631 -0.744434
			 0.329826 -0.555240 -0.763494
			 0.349468 -0.593009 -0.725405
			 0.485291 -0.547166 -0.681984
			 0.747543 -0.180413 -0.639242
			 0.824827 -0.408916 -0.390447
			 0.701429 -0.520373 -0.487042
			 0.764896 -0.586983 -0.265300
			 0.780898 -0.582779 -0.224870
			 0.719701 -0.195199 -0.666279
			 0.627120 -0.527241 -0.573356
			 0.208156  0.663784 -0.718375
			 0.233751  0.435463 -0.869329
			 0.256501  0.330166 -0.908404
			 0.249178  0.710359 -0.658256
			 0.228490  0.821601 -0.522268
			 0.114066  0.954157 -0.276720
			 0.171894  0.973233 -0.152544
			 0.176066  0.983957  0.028798
			 0.089505  0.892587  0.441903
			 0.232458  0.908116  0.348266
			 0.326384  0.902451  0.281167
			 0.142154  0.876084  0.460727
			 0.256038  0.954595  0.152289
			-0.009029  0.764036  0.645110
			-0.071647  0.774038  0.629072
			 0.163154  0.856306  0.490021
			 0.211994  0.823699  0.525907
			 0.070927  0.778571  0.623535
			 0.207341  0.788202  0.579437
			 0.244083  0.797468  0.551787
			 0.234583  0.810324  0.536979
			-0.056239  0.722083  0.689516
			-0.044512  0.740218  0.670892
			-0.312917  0.559768  0.767296
			 0.007111  0.713703  0.700413
			-0.307864  0.592062  0.744771
			 0.080757  0.763477  0.640766
			 0.036243  0.819654  0.571711
			-0.257563  0.676643  0.689794
			-0.039887  0.831896  0.553497
			-0.078786  0.805855  0.586849
			-0.404063  0.529309  0.746033
			-0.512129  0.439311  0.738058
			 0.415379 -0.804508 -0.424533
			 0.386752 -0.746819 -0.541003
			 0.335720 -0.760722 -0.555512
			 0.269368 -0.808486 -0.523250
			 0.432164 -0.737648 -0.518758
			 0.296922  0.130956 -0.945879
			 0.350812 -0.069109 -0.933893
			 0.288666 -0.032377 -0.956882
			 0.469605 -0.406098 -0.783936
			 0.389060 -0.039943 -0.920346
			 0.465781 -0.160816 -0.870165
			 0.442435 -0.678879 -0.585981
			 0.399501 -0.110304 -0.910073
			 0.509505  0.210197 -0.834399
			 0.498065  0.382667 -0.778137
			 0.441378  0.017215 -0.897156
			 0.399656  0.224454 -0.888760
			 0.796917 -0.483040 -0.362761
			 0.695484 -0.717981  0.028382
			 0.643373 -0.764732  0.035442
			 0.624966 -0.774664 -0.096505
			-0.144075 -0.989567  0.000437
			-0.302719 -0.952301 -0.038532
			-0.426750 -0.892361  0.146892
			-0.382729 -0.923243  0.033771
			-0.463532 -0.502269  0.729975
			-0.482990 -0.784287  0.389377
			-0.449282  0.035843  0.892671
			-0.336010 -0.375223  0.863889
			-0.402358 -0.139035  0.904863
			-0.334801 -0.271339  0.902377
			-0.325930 -0.248484  0.912154
			-0.399192 -0.305158  0.864595
			-0.044414 -0.978963 -0.199146
			 0.623091 -0.702675 -0.343520
			 0.444089 -0.702295 -0.556387
			 0.227394 -0.702966 -0.673893
			 0.035931 -0.841741 -0.538685
			-0.436541  0.332598  0.835949
			 0.311944 -0.681775 -0.661721
			 0.275111 -0.623499 -0.731822
			 0.158142 -0.580742 -0.798580
			 0.229955 -0.608827 -0.759244
			 0.327896  0.517318 -0.790485
			 0.240628  0.447777 -0.861159
			 0.245595  0.586768 -0.771613
			 0.324038  0.662872 -0.674982
			 0.327949  0.575898 -0.748860
			 0.454749  0.499535 -0.737339
			 0.153359  0.897942 -0.412530
			 0.352524  0.719047 -0.598914
			 0.234124  0.865348 -0.443123
			 0.210278  0.948006 -0.238887
			 0.249466  0.967202 -0.047814
			 0.319089  0.867895  0.380711
			 0.462355  0.827118  0.319536
			 0.434659  0.875459  0.211291
			 0.465158  0.844557  0.265238
			 0.218748  0.822660  0.524766
			 0.126066  0.833361  0.538160
			 0.399875  0.915412  0.046058
			 0.067036  0.762702  0.643267
			 0.320087  0.789177  0.524160
			 0.170556  0.809340  0.562031
			 0.317082  0.791060  0.523148
			 0.302684  0.803863  0.512042
			 0.234893  0.792253  0.563170
			 0.257595  0.786203  0.561721
			 0.322379  0.775941  0.542207
			 0.174896  0.890787  0.419417
			 0.020763  0.862338  0.505907
			-0.235282  0.644137  0.727826
			-0.167154  0.723674  0.669593
			-0.064333  0.744311  0.664727
			-0.060824  0.777031  0.626516
			 0.053124  0.808243  0.586448
			-0.265808  0.607582  0.748458
			-0.351291  0.497254  0.793305
			-0.301684  0.207727  0.930503
			-0.399738  0.361223  0.842453
			-0.364202  0.241812  0.899380
			 0.448964 -0.513117 -0.731534
			 0.341297 -0.656953 -0.672257
			 0.241085 -0.732671 -0.636451
			 0.240376 -0.783872 -0.572507
			 0.192550 -0.778429 -0.597472
			 0.279415  0.068589 -0.957718
			 0.463600 -0.316703 -0.827511
			 0.474544 -0.134479 -0.869899
			 0.419780 -0.124865 -0.898996
			 0.483805 -0.095675 -0.869930
			 0.359925 -0.185199 -0.914415
			 0.355009 -0.234739 -0.904912
			 0.592402  0.262906 -0.761538
			 0.597583  0.237716 -0.765758
			 0.573950  0.186999 -0.797254
			-0.241246 -0.968361  0.063845
			-0.319909 -0.928172  0.190144
			-0.347443 -0.932949  0.094283
			-0.416565 -0.907453 -0.054800
			-0.363193 -0.917141  0.164146
			-0.395031 -0.878684  0.268077
			-0.337339 -0.921237  0.193715
			-0.396140 -0.658715  0.639662
			-0.306560 -0.419769  0.854292
			-0.330347 -0.135661  0.934059
			-0.372705  0.086574  0.923903
			-0.245769 -0.374959  0.893870
			-0.262867 -0.254465  0.930671
			-0.281227 -0.276760  0.918866
			-0.366466 -0.124778  0.922027
			-0.282687 -0.242244  0.928120
			-0.264368 -0.349633  0.898814
			-0.220258 -0.402115  0.888701
			-0.217509 -0.237134  0.946814
			-0.178171 -0.902316 -0.392531