<?xml version="1.0"?>
<VTKFile type="PolyData" version="0.1" byte_order="LittleEndian" compressor="vtkZLibDataCompressor">
	<PolyData>
		<Piece NumberOfPoints="1122" NumberOfVerts="0" NumberOfLines="0" NumberOfStrips="0" NumberOfPolys="2240">
		<PointData Normals="Normals">
		<DataArray type="Float32" Name="Normals" NumberOfComponents="3" format="ascii">
			-0.334421  0.942194 -0.020793
			-0.042549  0.986881 -0.155745
			-0.278074  0.888510 -0.364999
			-0.551578  0.815799 -0.173881
			 0.126644  0.982657  0.135449
			-0.074865  0.936136  0.343576
			-0.531579  0.820690  0.209504
			 0.377856  0.923408 -0.067393
			-0.423681  0.837623 -0.344793
			-0.225966  0.852902 -0.470635
			-0.474023  0.777506 -0.413263
			-0.368867  0.894039 -0.254227
			-0.319124  0.895253 -0.310938
			-0.104247  0.960806 -0.256873
			-0.357541  0.888591 -0.287351
			 0.243921  0.967537 -0.066140
			-0.467654  0.873490 -0.135329
			-0.496164  0.853449  0.159516
			-0.343717  0.869162 -0.355551
			 0.417608  0.861461  0.288943
			-0.454815  0.838296  0.300672
			 0.330234  0.845881  0.418844
			 0.125271  0.898742  0.420202
			-0.639130  0.733516  0.231229
			 0.456890  0.885913 -0.080059
			 0.551666  0.806136  0.214030
			 0.546145  0.831593  0.100885
			 0.558341  0.795455 -0.235598
			-0.291383  0.921027 -0.258467
			 0.755837  0.558029 -0.342511
			-0.191264  0.969902 -0.150690
			-0.463038  0.875228 -0.139900
			-0.375797  0.926615 -0.012683
			-0.005137  0.997753 -0.066804
			 0.001590  0.988546 -0.150909
			-0.399118  0.913600 -0.077719
			 0.664743  0.741677  0.089620
			 0.527394  0.843839  0.098955
			 0.347755  0.931984 -0.102331
			-0.161417  0.977326  0.137031
			-0.190409  0.958273 -0.213209
			-0.274947  0.898110  0.343225
			-0.514929  0.842725  0.157042
			-0.401868  0.854288  0.329688
			 0.944236  0.291664 -0.152810
			 0.587229  0.709925  0.388805
			 0.447061  0.772288  0.451340
			-0.546328  0.813738  0.198383
			-0.130996  0.946843  0.293818
			 0.284072  0.897845  0.336419
			 0.705384  0.692561  0.150976
			 0.717932  0.655018  0.235639
			-0.111306  0.993786  0.000779
			 0.153421  0.977219 -0.146648
			-0.274849  0.953985  0.119879
			 0.368154  0.924421  0.099538
			 0.185375  0.895494  0.404631
			 0.501240  0.864572 -0.035670
			 0.471835  0.869280 -0.147387
			 0.376772  0.899534 -0.221094
			 0.088700  0.958566 -0.270710
			-0.177211  0.971596 -0.156836
			-0.059836  0.947651 -0.313653
			-0.056463  0.906146 -0.419179
			 0.721126  0.692716 -0.011004
			 0.942562  0.326797  0.069146
			 0.929094  0.366610  0.048795
			 0.814251  0.574839  0.080968
			-0.035222  0.905742  0.422363
			-0.161871  0.927608  0.336661
			-0.319512  0.897741  0.303271
			-0.416990  0.880952  0.223704
			-0.218132  0.972790  0.078089
			-0.331154  0.942524 -0.044562
			-0.457212  0.889298  0.010252
			-0.478702  0.872758  0.095596
			 0.759508  0.406517  0.507829
			 0.822514  0.455913  0.340022
			 0.647340  0.533332  0.544526
			 0.858379  0.401355  0.319531
			 0.498346  0.756297  0.423869
			-0.004691  0.931296  0.364232
			 0.241644  0.921863  0.302948
			-0.318975  0.924572  0.208378
			 0.540554  0.749983  0.381219
			 0.925316  0.329182  0.188226
			-0.053621  0.988458  0.141687
			 0.176952  0.984187 -0.008037
			 0.250992  0.964815 -0.078325
			 0.395514  0.910821 -0.118207
			-0.030870  0.992100  0.121592
			 0.242116  0.857908  0.453181
			 0.312268  0.949141  0.040245
			 0.436854  0.887687 -0.145501
			 0.111706  0.848044  0.518018
			 0.770899  0.636296 -0.029022
			 0.706443  0.692122 -0.148003
			 0.358046  0.803087 -0.476292
			 0.664498  0.644556 -0.378140
			 0.118668  0.766582 -0.631086
			 0.094784  0.506887 -0.856785
			 0.102277  0.554856 -0.825635
			 0.175977  0.462529 -0.868965
			 0.008289  0.490064 -0.871647
			 0.080072  0.724177 -0.684949
			-0.120118  0.947319 -0.296914
			-0.039732  0.994475  0.097162
			 0.988766  0.083524  0.123961
			 0.986089 -0.027540  0.163923
			 0.994254  0.080251 -0.070844
			 0.930859  0.351555 -0.099551
			 0.016982  0.946475  0.322332
			 0.170899  0.854161  0.491124
			 0.093106  0.977894  0.187228
			 0.002189  0.999497  0.031641
			-0.147539  0.988599 -0.030063
			-0.329914  0.943806 -0.019683
			-0.411889  0.902307  0.127240
			-0.334193  0.935147  0.117535
			 0.909488  0.047737  0.412980
			 0.830101  0.156686  0.535146
			 0.679320  0.485633  0.550168
			 0.957678  0.013761  0.287512
			 0.299484  0.837046  0.457891
			-0.135653  0.923271  0.359400
			 0.752795  0.488719  0.440969
			 0.736415  0.462004  0.494212
			 0.602650  0.624936  0.496254
			 0.982126 -0.059886  0.178443
			 0.282709  0.957347 -0.059688
			-0.056224  0.991307 -0.118953
			 0.149158  0.943696 -0.295278
			 0.021089  0.984844  0.172155
			 0.083877  0.872107  0.482072
			 0.152256  0.918771 -0.364251
			-0.031434  0.949908 -0.310945
			 0.852210  0.423005 -0.307903
			 0.709402  0.427155 -0.560614
			 0.401817  0.623062 -0.671071
			 0.337277  0.435291 -0.834725
			 0.048880  0.439143 -0.897086
			 0.082794  0.358711 -0.929770
			 0.026133  0.361686 -0.931933
			 0.046681  0.361503 -0.931202
			 0.232418  0.290047 -0.928361
			 0.643564  0.222442 -0.732356
			 0.016849  0.641868 -0.766630
			-0.202544  0.652642 -0.730092
			-0.230248  0.936808 -0.263394
			-0.278147  0.731390 -0.622658
			 0.951192 -0.072629  0.299931
			 0.995727 -0.059596  0.070536
			 0.901035 -0.100816  0.421868
			 0.944041 -0.209212  0.254982
			 0.907409  0.255271 -0.333833
			 0.923614  0.097929 -0.370604
			 0.992489 -0.054153 -0.109693
			 0.982316 -0.187218  0.002057
			 0.176604  0.912582  0.368788
			 0.025009  0.843502  0.536544
			-0.132927  0.820025  0.556677
			 0.065112  0.935113  0.348316
			-0.076945  0.971421  0.224544
			-0.157116  0.964883  0.210514
			-0.135264  0.965153  0.224018
			-0.115316  0.989556  0.086497
			-0.230439  0.920406  0.315833
			-0.292734  0.945013  0.145797
			-0.015640  0.935210  0.353749
			 0.898085 -0.147951  0.414191
			 0.942701 -0.144614  0.300667
			 0.964988 -0.126979  0.229510
			 0.896729 -0.035114  0.441184
			 0.823373  0.211529  0.526604
			 0.965162 -0.234949  0.115157
			 0.147418  0.834896  0.530299
			 0.483542  0.570732  0.663666
			 0.686004  0.406431  0.603501
			-0.085580  0.969786 -0.228453
			-0.301073  0.785621 -0.540513
			-0.458986  0.662540 -0.591923
			-0.442952  0.872099  0.207934
			-0.420371  0.880360 -0.219669
			-0.315333  0.784744 -0.533612
			 0.514401  0.377368 -0.770055
			 0.259069  0.231324 -0.937748
			 0.251398  0.207590 -0.945360
			-0.007932  0.223449 -0.974683
			-0.081135  0.266610 -0.960383
			-0.057309  0.326245 -0.943546
			 0.495499  0.090235 -0.863909
			 0.736369  0.045269 -0.675064
			-0.315068  0.280020 -0.906819
			-0.446439  0.452872 -0.771751
			 0.967702 -0.158443  0.196085
			 0.937917 -0.155199  0.310202
			 0.981992 -0.188674  0.009734
			 0.966827 -0.031500  0.253484
			 0.935670 -0.152734  0.318111
			 0.895728 -0.033047 -0.443372
			 0.973371 -0.064077 -0.220097
			 0.990931 -0.123737  0.052384
			 0.993094 -0.112640 -0.032800
			 0.963669 -0.264551  0.036818
			 0.970337 -0.237689  0.044154
			 0.988662 -0.140762 -0.052288
			 0.977569 -0.178390  0.111966
			 0.979722 -0.158995 -0.121920
			-0.175208  0.870305  0.460295
			-0.498285  0.836570  0.227733
			-0.617187  0.722449  0.311685
			-0.549790  0.761082  0.344217
			-0.519742  0.800836  0.297539
			-0.334291  0.819813  0.464926
			-0.791505  0.545493  0.275602
			-0.518014  0.587629  0.621573
			-0.356278  0.815548  0.456013
			-0.333121  0.814286  0.475362
			-0.397212  0.614816  0.681340
			-0.233516  0.860059  0.453618
			 0.226167  0.891004  0.393650
			 0.818013  0.500362  0.283714
			 0.947792  0.280366  0.151936
			 0.893153 -0.151624  0.423424
			 0.910479 -0.220363  0.349955
			 0.953063 -0.200540  0.226837
			 0.975808 -0.159706  0.149309
			 0.900977 -0.081044  0.426231
			 0.783860  0.029471  0.620237
			 0.654943  0.265198  0.707615
			 0.861986 -0.103322  0.496292
			 0.989722 -0.119033  0.079255
			 0.336101  0.589813  0.734273
			 0.041577  0.866366  0.497676
			 0.508196  0.338355  0.791993
			-0.412889  0.617795 -0.669218
			-0.535088  0.409575 -0.738870
			-0.583273  0.371458 -0.722365
			-0.652822  0.736600 -0.176760
			-0.749629  0.644675 -0.149835
			-0.538307  0.726676 -0.426810
			-0.456432  0.640220 -0.617890
			 0.456770 -0.012159 -0.889502
			 0.262204  0.019640 -0.964813
			 0.094442  0.026812 -0.995169
			-0.061495  0.003307 -0.998102
			-0.241537  0.129355 -0.961731
			 0.597935 -0.059451 -0.799337
			 0.746184 -0.084171 -0.660398
			-0.376747  0.033644 -0.925705
			-0.413760 -0.005380 -0.910370
			-0.516550  0.184872 -0.836062
			 0.945272 -0.187328  0.267151
			 0.954010 -0.164843  0.250384
			 0.969623 -0.150640  0.192716
			 0.970436 -0.193612  0.144112
			 0.870911 -0.139480 -0.471231
			 0.945225 -0.117536 -0.304525
			 0.981151 -0.158392  0.110698
			 0.994710 -0.079865  0.064602
			 0.931082 -0.063035 -0.359324
			 0.838021 -0.135344 -0.528586
			-0.734664  0.647980  0.200973
			-0.762607  0.638911  0.101111
			-0.869721  0.405648  0.281130
			-0.864833  0.463578  0.192770
			-0.637549  0.578975  0.508252
			-0.833454  0.432963  0.343361
			-0.927227  0.169983  0.333701
			-0.930499  0.134024  0.340894
			-0.551362  0.451047  0.701824
			-0.721752  0.145498  0.676686
			-0.677749  0.326660  0.658748
			-0.446445  0.528562  0.722018
			-0.453293  0.583993  0.673408
			-0.392570  0.663431  0.636983
			-0.287864  0.772412  0.566140
			-0.058985  0.904111  0.423206
			-0.579520  0.267130  0.769934
			-0.611650  0.309254  0.728180
			-0.503935  0.372742  0.779175
			 0.571828  0.753106  0.325337
			 0.839049 -0.249402  0.483524
			 0.857485 -0.241221  0.454458
			 0.961962 -0.186986  0.199162
			 0.890629 -0.185372  0.415231
			 0.923359 -0.206429  0.323721
			 0.988873 -0.104965  0.105415
			 0.621764  0.060317  0.780879
			 0.772939 -0.162443  0.613333
			 0.399946  0.286384  0.870648
			 0.301990  0.427536  0.852065
			 0.136069  0.758546  0.637254
			-0.512598  0.378266 -0.770816
			-0.582720  0.231630 -0.778964
			-0.598439  0.068821 -0.798207
			-0.592518  0.680890 -0.430479
			-0.867718  0.411706 -0.278501
			-0.750362  0.473940 -0.460801
			-0.879092  0.464820 -0.105547
			-0.442504  0.617826 -0.649985
			 0.434994 -0.072881 -0.897479
			 0.301045 -0.159672 -0.940147
			 0.173840 -0.100095 -0.979674
			-0.287771 -0.019831 -0.957494
			-0.016767 -0.130528 -0.991303
			 0.578258 -0.130251 -0.805390
			 0.713698 -0.152342 -0.683686
			-0.464273 -0.135073 -0.875332
			-0.432119 -0.000761 -0.901817
			-0.402447 -0.146894 -0.903581
			-0.569229  0.030910 -0.821598
			 0.993618 -0.077421  0.082030
			 0.936143 -0.125285  0.328543
			 0.989914 -0.088687  0.110479
			 0.982675 -0.080768  0.166816
			 0.985093 -0.108280  0.133669
			 0.984642 -0.062076  0.163176
			 0.999119  0.034928  0.023262
			 0.615105 -0.122290 -0.778904
			 0.616847 -0.124769 -0.777131
			 0.800029 -0.089091 -0.593310
			 0.517441 -0.150248 -0.842425
			-0.845445  0.499709  0.188452
			-0.929789  0.364405  0.051972
			-0.940897  0.261561  0.215172
			-0.956389  0.266251  0.120127
			-0.779703  0.304329  0.547218
			-0.937736 -0.136721  0.319311
			-0.947826  0.030201  0.317355
			-0.861593 -0.038787  0.506116
			-0.835897  0.128756  0.533571
			-0.850413 -0.079741  0.520038
			-0.714740  0.076806  0.695160
			-0.750820  0.108946  0.651460
			-0.817875 -0.060656  0.572190
			-0.299823  0.290909  0.908558
			-0.316166  0.467550  0.825492
			-0.129527  0.478980  0.868217
			-0.083149  0.741102  0.666223
			-0.014927  0.845142  0.534334
			-0.523162  0.155138  0.837994
			-0.277989  0.144796  0.949608
			 0.839637 -0.242602  0.485957
			 0.810323 -0.254518  0.527822
			 0.858992 -0.202006  0.470453
			 0.918981 -0.099507  0.381539
			 0.886478 -0.155295  0.435935
			 0.749550 -0.157584  0.642917
			 0.527593 -0.049495  0.848054
			 0.361284  0.097262  0.927369
			 0.076597  0.270482  0.959673
			 0.142459  0.531801  0.834801
			-0.701318  0.026025 -0.712373
			-0.700612  0.136764 -0.700313
			-0.557372  0.416425 -0.718280
			-0.591395 -0.046765 -0.805025
			-0.699561 -0.193017 -0.688012
			-0.660379 -0.263653 -0.703127
			-0.577315  0.583448 -0.571223
			-0.776190  0.365879 -0.513480
			-0.916838  0.202131 -0.344312
			-0.926313  0.285425 -0.245920
			-0.713453  0.350297 -0.606858
			-0.662369  0.469154 -0.584090
			-0.025767  0.393408 -0.919003
			-0.971891  0.206521 -0.113034
			 0.408189 -0.161566 -0.898487
			 0.170129 -0.217609 -0.961094
			-0.097528 -0.211725 -0.972451
			 0.570315 -0.132617 -0.810650
			-0.555368 -0.196624 -0.808026
			-0.575454 -0.229856 -0.784869
			-0.528018 -0.104987 -0.842719
			-0.484961 -0.199149 -0.851559
			-0.521151 -0.200900 -0.829482
			 0.947337 -0.050572  0.316220
			 0.984939 -0.032020  0.169910
			 0.982020  0.008615  0.188578
			 0.953763  0.050639  0.296262
			 0.957217 -0.030390 -0.287770
			 0.971595  0.011112  0.236391
			 0.239597 -0.198231 -0.950420
			 0.468566 -0.164604 -0.867958
			 0.675802 -0.150450 -0.721565
			 0.372356 -0.169787 -0.912427
			 0.211275 -0.219402 -0.952484
			-0.995142  0.098126  0.008009
			-0.993480  0.028647  0.110353
			-0.889213 -0.193706  0.414462
			-0.964035 -0.236747  0.120776
			-0.949229 -0.293892  0.112215
			-0.939743 -0.266328  0.214363
			-0.763915 -0.063457  0.642190
			-0.770200 -0.152917  0.619199
			-0.892126 -0.216423  0.396575
			-0.608231 -0.031887  0.793119
			-0.073497  0.080093  0.994074
			-0.064057  0.006800  0.997923
			-0.377031 -0.015861  0.926065
			-0.112931 -0.035485  0.992969
			 0.852850 -0.229096  0.469214
			 0.871946 -0.188974  0.451663
			 0.847711 -0.167767  0.503230
			 0.895273 -0.114939  0.430436
			 0.938707 -0.015025  0.344388
			 0.831973 -0.213737  0.511993
			 0.918840 -0.075879  0.387266
			 0.497549 -0.117701  0.859414
			 0.715486 -0.135471  0.685366
			 0.851970 -0.161885  0.497935
			 0.210255 -0.040504  0.976807
			 0.098478  0.075758  0.992251
			-0.635572  0.048767 -0.770500
			-0.804073 -0.025759 -0.593973
			-0.822280 -0.168196 -0.543659
			-0.613650 -0.308045 -0.727009
			-0.677481 -0.300215 -0.671484
			-0.625914 -0.348216 -0.697838
			-0.609101 -0.379575 -0.696361
			-0.703994 -0.306707 -0.640565
			-0.700758 -0.339643 -0.627361
			-0.832241 -0.249330 -0.495186
			-0.909103  0.108830 -0.402103
			-0.790695  0.154388 -0.592424
			 0.965776  0.096830 -0.240627
			-0.955680  0.051023 -0.289952
			-0.929721 -0.062992 -0.362838
			-0.975947  0.098198 -0.194639
			 0.758488  0.082822 -0.646403
			-0.988990 -0.097087 -0.111679
			-0.140014 -0.259890 -0.955433
			-0.454458 -0.230269 -0.860490
			-0.585463 -0.179098 -0.790668
			-0.659422 -0.215397 -0.720255
			-0.675163 -0.271985 -0.685696
			-0.625465 -0.300331 -0.720135
			-0.596378 -0.218440 -0.772410
			 0.965191  0.003722  0.261518
			 0.833966 -0.071800  0.547124
			 0.861381 -0.024125  0.507387
			 0.989495  0.007999  0.144346
			 0.935352  0.042110  0.351204
			 0.979370 -0.052506  0.195133
			 0.987569 -0.036647  0.152856
			 0.945098 -0.067164 -0.319809
			 0.981375 -0.139507 -0.132064
			 0.991337 -0.055464 -0.119060
			 0.174142 -0.223797 -0.958952
			 0.114107 -0.279290 -0.953403
			 0.270413 -0.204345 -0.940808
			 0.238432 -0.236884 -0.941826
			 0.430114 -0.199524 -0.880450
			 0.857660 -0.137641 -0.495453
			 0.612549 -0.157681 -0.774546
			 0.317450 -0.184918 -0.930070
			-0.949890 -0.311163 -0.029768
			-0.951211 -0.305708 -0.041715
			-0.915316 -0.227553  0.332288
			-0.965702 -0.247793  0.077575
			-0.491226 -0.169238  0.854433
			-0.878065 -0.222800  0.423512
			-0.678805 -0.241579  0.693443
			-0.514292 -0.226496  0.827166
			 0.133072 -0.132026  0.982273
			-0.158525 -0.137734  0.977701
			 0.877704 -0.138048  0.458888
			 0.812277 -0.109097  0.572979
			 0.911449 -0.009371  0.411307
			 0.955874 -0.047877  0.289850
			 0.803583 -0.063069  0.591842
			 0.452424 -0.162709  0.876834
			 0.760539 -0.138908  0.634259
			-0.884668  0.008990 -0.466136
			-0.734162 -0.280862 -0.618160
			-0.690471 -0.333263 -0.642017
			-0.828828 -0.369374 -0.420247
			-0.947465 -0.227028 -0.225318
			-0.916932 -0.314552 -0.245545
			-0.110219 -0.245979 -0.962988
			-0.552365 -0.146361 -0.820653
			-0.634501 -0.136631 -0.760750
			-0.736998 -0.184540 -0.650214
			 0.885970  0.006291  0.463699
			 0.801933 -0.068000  0.593531
			 0.855691 -0.007705  0.517429
			 0.996755  0.019892  0.078001
			 0.960358  0.012030  0.278510
			 0.999370 -0.014970  0.032174
			 0.967156 -0.050332  0.249151
			 0.980780 -0.057551  0.186439
			 0.993973 -0.016634  0.108353
			 0.987476 -0.153311 -0.037239
			 0.994072 -0.060724 -0.090190
			 0.842146 -0.143642 -0.519767
			 0.344342 -0.246559 -0.905890
			 0.118847 -0.186847 -0.975174
			 0.116730 -0.196715 -0.973487
			 0.840043 -0.169689 -0.515300
			 0.949173 -0.094244 -0.300315
			 0.546414 -0.143270 -0.825170
			 0.361414 -0.127483 -0.923649
			 0.107492 -0.178910 -0.977976
			 0.156350 -0.131363 -0.978927
			-0.955580 -0.292390 -0.037078
			-0.924168 -0.357851 -0.133631
			-0.898823 -0.183602  0.398004
			-0.926053 -0.189301  0.326482
			-0.905905 -0.168024  0.388722
			-0.977126 -0.197524  0.078796
			-0.948175 -0.269790 -0.167864
			-0.176538 -0.225514  0.958112
			-0.698048 -0.229081  0.678418
			-0.410629 -0.253844  0.875755
			 0.056383 -0.178277  0.982363
			 0.158452 -0.203755  0.966114
			 0.649697 -0.183014  0.737835
			 0.852984 -0.113626  0.509419
			 0.929059 -0.092166  0.358266
			 0.927370 -0.003270  0.374130
			 0.825905 -0.028901  0.563068
			 0.446244 -0.182931  0.876015
			 0.252684 -0.179781  0.950699
			 0.569494 -0.090746  0.816971
			 0.246315 -0.114876  0.962358
			 0.306585 -0.212156  0.927899
			-0.845710 -0.208642 -0.491166
			-0.894797 -0.236648 -0.378597
			-0.800427 -0.368913 -0.472462
			-0.847261 -0.351438 -0.398298
			-0.869698 -0.384689 -0.309258
			-0.019443 -0.204464 -0.978681
			 0.738082 -0.133787 -0.661314
			-0.322555 -0.167426 -0.931626
			-0.524816 -0.135316 -0.840391
			-0.645277 -0.111706 -0.755737
			-0.711246 -0.119488 -0.692713
			-0.842031 -0.130988 -0.523284
			-0.775903 -0.138775 -0.615399
			 0.838653  0.008574  0.544599
			 0.799027  0.015854  0.601086
			 0.970426  0.035437  0.238784
			 0.995460  0.045682  0.083505
			 0.885057  0.018779  0.465104
			 0.987433  0.015218  0.157301
			 0.970519 -0.036389 -0.238261
			 0.999180  0.028734  0.028515
			 0.916917 -0.184018 -0.354119
			 0.831473 -0.214868 -0.512332
			 0.643498 -0.146418 -0.751314
			-0.108327 -0.193906 -0.975021
			 0.314763 -0.109812 -0.942797
			-0.069517 -0.163576 -0.984078
			-0.003033 -0.133450 -0.991051
			-0.943427 -0.324661 -0.067381
			-0.921223 -0.341386 -0.186555
			-0.843419 -0.214363  0.492639
			-0.945665 -0.167657  0.278584
			-0.976284 -0.184655 -0.113010
			-0.930893 -0.174832 -0.320737
			-0.185772 -0.254868  0.948963
			 0.146909 -0.191958  0.970345
			 0.132990 -0.190970  0.972545
			-0.462545 -0.264946  0.846083
			-0.627647 -0.279233  0.726697
			-0.425462 -0.242655  0.871838
			 0.155057 -0.198413  0.967776
			 0.472284 -0.174375  0.864026
			 0.852212 -0.053532  0.520451
			 0.939588 -0.013064  0.342058
			 0.886437  0.014397  0.462626
			 0.103475 -0.211938  0.971790
			-0.313807 -0.234347  0.920112
			-0.196600 -0.267252  0.943358
			 0.099444 -0.192533  0.976239
			-0.904197 -0.154641 -0.398137
			-0.343325 -0.181056 -0.921600
			-0.632074 -0.119788 -0.765593
			-0.568521 -0.149727 -0.808928
			-0.719494 -0.119823 -0.684084
			-0.730796 -0.133882 -0.669338
			-0.858767 -0.121429 -0.497769
			-0.920667 -0.118619 -0.371889
			-0.932887 -0.145364 -0.329533
			 0.776854  0.012165  0.629564
			 0.937490  0.054036  0.343792
			 0.949823  0.072058  0.304376
			 0.995394  0.092090  0.026669
			 0.959296  0.085477  0.269155
			 0.791092  0.015593  0.611498
			 0.839579  0.032211  0.542281
			 0.993633  0.093350 -0.063085
			 0.879854  0.053203 -0.472256
			 0.794733  0.003702 -0.606947
			 0.897231  0.048907 -0.438845
			 0.739054 -0.082947 -0.668520
			 0.421603 -0.121883 -0.898552
			 0.127707 -0.125301 -0.983865
			-0.334912 -0.164941 -0.927701
			-0.210268 -0.147483 -0.966456
			-0.302938 -0.149166 -0.941264
			-0.738665 -0.265826  0.619444
			-0.776707 -0.196048  0.598575
			-0.881453 -0.147916  0.448510
			-0.982384 -0.121654  0.141854
			-0.864491 -0.124030  0.487105
			-0.972029 -0.129374 -0.196013
			-0.478913 -0.268157  0.835903
			-0.572718 -0.298668  0.763408
			 0.535909 -0.136713  0.833133
			-0.046198 -0.213253  0.975904
			 0.719311 -0.125370  0.683281
			 0.868805 -0.125231  0.479056
			 0.886414 -0.084753  0.455069
			 0.922031 -0.046354  0.384332
			 0.919197 -0.100598  0.380731
			 0.810474  0.017582  0.585511
			-0.279655 -0.233685  0.931227
			-0.569940 -0.225268  0.790204
			-0.611645 -0.275194  0.741727
			-0.564703 -0.139593 -0.813403
			-0.822417 -0.150507 -0.548614
			-0.660991 -0.148196 -0.735614
			-0.969642 -0.160968 -0.184075
			-0.893222 -0.180805 -0.411660
			-0.987386 -0.136351 -0.080482
			 0.857055  0.043999  0.513343
			 0.945869  0.059130  0.319117
			 0.887243  0.062992  0.456981
			 0.984197  0.132033  0.118002
			 0.984004  0.142943 -0.106321
			 0.989005  0.138774  0.051095
			 0.924348  0.090952  0.370553
			 0.956079  0.096014  0.276939
			 0.938727  0.126332  0.320675
			 0.983670  0.153825  0.093438
			 0.781767  0.007199 -0.623529
			 0.435409 -0.007726 -0.900200
			 0.471882 -0.124889 -0.872772
			 0.617674  0.077936 -0.782563
			 0.844376  0.050215 -0.533393
			 0.873483  0.017499 -0.486540
			 0.078512 -0.104259 -0.991446
			-0.103168 -0.157370 -0.982136
			-0.495396 -0.149857 -0.855644
			-0.457695 -0.154101 -0.875653
			-0.474173 -0.148510 -0.867816
			-0.299749 -0.143203 -0.943209
			-0.773071 -0.190171  0.605142
			-0.649003 -0.212166  0.730603
			-0.901380 -0.120092  0.416044
			-0.781072 -0.162882  0.602823
			-0.970035 -0.124320  0.208751
			-0.985109 -0.167003  0.040858
			 0.302945 -0.135077  0.943387
			-0.310148 -0.107696  0.944569
			-0.454594 -0.213955  0.864620
			-0.496077 -0.137274  0.857358
			 0.637185 -0.132151  0.759297
			 0.834315 -0.011878  0.551160
			 0.917574 -0.088374  0.387617
			 0.841022 -0.019362  0.540655
			-0.806384 -0.162931 -0.568506
			-0.679609 -0.163218 -0.715186
			-0.780219 -0.152496 -0.606633
			-0.481611 -0.165885 -0.860542
			-0.668705 -0.155248 -0.727139
			-0.949934 -0.169180 -0.262685
			-0.979805 -0.144920  0.137770
			-0.985725 -0.141762  0.090827
			-0.829184 -0.157320 -0.536380
			 0.834556  0.072401  0.546146
			 0.989101  0.036733  0.142586
			 0.980706  0.024584  0.193939
			 0.920041  0.067471  0.385971
			 0.988141  0.147218  0.043627
			 0.966173  0.222150 -0.130995
			 0.979840  0.196334  0.036972
			 0.780420  0.191893 -0.595081
			 0.992582  0.115198  0.038864
			 0.982798  0.171691  0.068048
			 0.911719  0.117245  0.393729
			 0.981386  0.060084  0.182406
			 0.917622  0.187059  0.350683
			 0.904181  0.135851  0.404971
			 0.853132  0.191127  0.485424
			 0.972439  0.227970  0.048904
			 0.980757  0.190083 -0.044547
			 0.996697  0.079297 -0.017537
			 0.998990  0.044919 -0.000880
			-0.022972 -0.009518 -0.999691
			 0.516094  0.110239 -0.849408
			-0.175148 -0.106624 -0.978752
			-0.525407 -0.143736 -0.838623
			-0.362171 -0.137206 -0.921958
			-0.388289 -0.138685 -0.911042
			-0.653689 -0.164119  0.738753
			-0.794135 -0.121210  0.595531
			-0.914829 -0.129774  0.382423
			-0.955382 -0.154063  0.252010
			-0.983879 -0.178392  0.012568
			 0.172479 -0.121154  0.977534
			 0.088700 -0.091623  0.991835
			-0.534775 -0.115399  0.837077
			-0.140330 -0.011276  0.990041
			-0.635897 -0.122207  0.762037
			 0.727601  0.001744  0.685999
			 0.422651 -0.075512  0.903141
			 0.333782 -0.147609  0.931022
			 0.754808  0.096098  0.648868
			 0.793036  0.104905  0.600074
			-0.575013 -0.175119 -0.799183
			-0.661673 -0.177119 -0.728573
			-0.424532 -0.173366 -0.888660
			-0.832143 -0.163677 -0.529857
			 0.419443 -0.182195 -0.889310
			 0.747235 -0.119374 -0.653751
			-0.926639 -0.144363 -0.347130
			-0.983155 -0.164649 -0.079357
			-0.983757 -0.140875  0.111247
			 0.865027  0.111487  0.489183
			 0.948716  0.315290 -0.023042
			 0.827986  0.293208 -0.477983
			 0.974118  0.220493  0.049769
			 0.511411  0.187397 -0.838654
			 0.986945  0.160636 -0.011672
			 0.803750  0.156281  0.574075
			 0.894309  0.156074  0.419348
			 0.843471  0.201233  0.498059
			 0.850418  0.262739  0.455805
			 0.936782  0.267772  0.225252
			 0.923339  0.193814  0.331483
			 0.882018  0.148140  0.447324
			 0.892904  0.143293  0.426837
			 0.750920  0.235819  0.616854
			 0.708313  0.350517  0.612723
			 0.893192  0.259112  0.367517
			 0.815308  0.321649  0.481471
			 0.798387  0.211605  0.563738
			 0.794421  0.187642  0.577655
			 0.948682  0.310594  0.059451
			 0.939097  0.343234  0.016953
			 0.111042  0.050131 -0.992551
			-0.141084 -0.030843 -0.989517
			-0.296151 -0.000253 -0.955141
			-0.437316 -0.096162 -0.894152
			-0.444396 -0.175232 -0.878525
			-0.591051 -0.141181 -0.794183
			 0.747876 -0.104435 -0.655572
			-0.745343 -0.136244  0.652611
			-0.674536 -0.114814  0.729259
			-0.860849 -0.123220  0.493716
			-0.952594 -0.162772  0.257042
			 0.445027  0.021060  0.895270
			-0.471421 -0.053043  0.880312
			-0.680669 -0.092648  0.726710
			-0.301281  0.058632  0.951731
			 0.169530  0.150906  0.973903
			 0.521938  0.110877  0.845746
			-0.575221 -0.018707  0.817784
			 0.777057  0.150248  0.611234
			-0.594980 -0.171356 -0.785262
			-0.702021 -0.194917 -0.684962
			-0.808543 -0.197571 -0.554278
			-0.824692 -0.166015 -0.540669
			-0.937734 -0.158925 -0.308865
			-0.914330 -0.168035 -0.368464
			-0.980411 -0.146434  0.131726
			-0.983877 -0.147443 -0.101222
			 0.814664  0.392067 -0.427324
			 0.925080  0.374181  0.064924
			 0.453607  0.212922 -0.865393
			 0.770448  0.192811  0.607645
			 0.650102  0.188839  0.736008
			 0.790493  0.345508  0.505712
			 0.864678  0.263117  0.427904
			 0.826345  0.450456  0.337999
			 0.777660  0.462100  0.426272
			 0.897628  0.400707  0.183569
			 0.889118  0.356022  0.287608
			 0.509118  0.319399  0.799239
			 0.551535  0.234811  0.800420
			 0.729288  0.223568  0.646650
			 0.679976  0.257323  0.686598
			 0.609086  0.419573  0.673033
			 0.879320  0.351193  0.321652
			 0.809609  0.369154  0.456354
			 0.833883  0.382344  0.398060
			 0.140019  0.052134 -0.988775
			-0.101759  0.148368 -0.983683
			-0.273613 -0.044258 -0.960821
			-0.114861 -0.063700 -0.991337
			-0.367155 -0.098812 -0.924897
			-0.771740 -0.142430  0.619783
			-0.864215 -0.182460  0.468872
			-0.940095 -0.205646  0.271902
			-0.800514 -0.103715  0.590271
			-0.793078 -0.119892  0.597204
			-0.214182  0.117887  0.969654
			-0.452299 -0.003036  0.891861
			 0.405288  0.253428  0.878360
			-0.675966 -0.075550  0.733050
			-0.779227 -0.093984  0.619655
			-0.727207 -0.171356 -0.664686
			-0.503595 -0.121369 -0.855372
			-0.768936 -0.233520 -0.595152
			-0.828271 -0.232197 -0.509953
			-0.883254 -0.184814 -0.430937
			-0.874364 -0.213617 -0.435724
			-0.863720 -0.226874 -0.450019
			-0.901241 -0.214939 -0.376253
			-0.945381 -0.183593 -0.269348
			-0.983267 -0.145484  0.109642
			-0.980829 -0.181396  0.071207
			 0.892937  0.445976 -0.061386
			 0.725404  0.360981 -0.586074
			 0.343401  0.215107 -0.914224
			 0.807972  0.434125  0.398394
			 0.745697  0.426582  0.511824
			 0.742283  0.543516  0.391927
			 0.825270  0.529117  0.197394
			 0.840792  0.466151  0.275268
			 0.051274  0.216259  0.974989
			 0.056857  0.293759  0.954187
			 0.296766  0.362865  0.883323
			 0.344432  0.388071  0.854850
			 0.695918  0.424522  0.579206
			 0.756343  0.502090  0.419346
			 0.414951  0.281047 -0.865349
			 0.040449  0.219228 -0.974835
			-0.225956  0.243985 -0.943088
			-0.480645  0.142935 -0.865188
			-0.409667  0.016054 -0.912094
			-0.484123 -0.070474 -0.872157
			-0.891694 -0.144044  0.429107
			-0.854627 -0.140319  0.499923
			-0.408373  0.120132  0.904876
			-0.582996 -0.009292  0.812422
			-0.828696 -0.141961  0.541396
			-0.819950 -0.116617  0.560430
			-0.737738 -0.062728  0.672166
			-0.867684 -0.145864 -0.475234
			-0.859567 -0.258912 -0.440578
			-0.663462 -0.047059 -0.746729
			-0.784805 -0.080016 -0.614556
			-0.854032 -0.268011 -0.445869
			-0.877420 -0.261517 -0.402172
			-0.902984 -0.239304 -0.356866
			-0.962274 -0.195657 -0.189068
			-0.935005 -0.215194 -0.281880
			-0.941401 -0.199383 -0.272048
			-0.978031 -0.187065  0.091990
			 0.911551  0.335692 -0.237456
			 0.841203  0.436282 -0.319430
			 0.758283  0.388657 -0.523405
			 0.852947  0.415277  0.316271
			 0.790920  0.407458  0.456535
			 0.891813  0.346370  0.291029
			 0.747530  0.362681  0.556472
			 0.811777  0.302592  0.499456
			 0.766803  0.134945  0.627538
			 0.916795  0.385655  0.103719
			 0.801888  0.464283  0.376054
			 0.917899  0.323693  0.229531
			 0.910226  0.248727  0.331093
			-0.489184  0.106216  0.865689
			-0.485685  0.068516  0.871444
			-0.286863  0.133865  0.948573
			-0.093459  0.193306  0.976677
			-0.352728  0.130910  0.926523
			 0.548502  0.520255  0.654584