<?xml version="1.0"?>
<VTKFile type="PolyData" version="0.1" byte_order="LittleEndian" compressor="vtkZLibDataCompressor">
	<PolyData>
		<Piece NumberOfPoints="550" NumberOfVerts="0" NumberOfLines="0" NumberOfStrips="0" NumberOfPolys="1096">
		<PointData Normals="Normals">
		<DataArray type="Float32" Name="Normals" NumberOfComponents="3" format="ascii">
			 0.231142 -0.910111 -0.343907
			 0.229995 -0.899981 -0.370318
			 0.249917 -0.748647 -0.614060
			 0.170983 -0.972359 -0.159009
			 0.189253 -0.967742 -0.166308
			 0.144388 -0.714640 -0.684428
			 0.217623 -0.919248 -0.328061
			 0.166966 -0.959489 -0.226944
			 0.098980 -0.890204 -0.444679
			 0.213565 -0.536036 -0.816734
			 0.121486 -0.381907 -0.916181
			 0.095506 -0.993540 -0.061298
			 0.203120 -0.964544 -0.168516
			-0.075378 -0.953110 -0.293088
			 0.090571 -0.947278 -0.307345
			 0.201512 -0.930390 -0.306215
			 0.221436 -0.961494 -0.162776
			-0.079805 -0.274758 -0.958196
			-0.002218 -0.538420 -0.842674
			 0.082818 -0.744249 -0.662748
			 0.119061 -0.831870 -0.542048
			 0.166896 -0.773776 -0.611078
			 0.203417 -0.791933 -0.575729
			 0.124463 -0.899864 -0.418035
			-0.097061 -0.992994 -0.067400
			 0.083884 -0.996475 -0.001237
			 0.047725 -0.962078 -0.268566
			-0.036797 -0.819180 -0.572355
			-0.093377 -0.961093 -0.259964
			-0.176246 -0.227350 -0.957731
			 0.023292 -0.084398 -0.996160
			 0.096670 -0.113451 -0.988830
			-0.026971 -0.301553 -0.953068
			-0.090350 -0.114276 -0.989332
			 0.035234 -0.116009 -0.992623
			-0.098067 -0.937454 -0.334011
			 0.068693 -0.977750 -0.198205
			 0.204344 -0.966451 -0.155612
			-0.341940 -0.648768 -0.679836
			-0.218131 -0.871592 -0.439029
			-0.182284 -0.841264 -0.508967
			 0.082640 -0.869873 -0.486304
			-0.035484 -0.872419 -0.487470
			 0.119809 -0.768430 -0.628619
			 0.325018 -0.898080 -0.296335
			 0.218246 -0.964920 -0.145940
			 0.294245 -0.748835 -0.593857
			 0.340452 -0.849328 -0.403403
			 0.311150 -0.869549 -0.383498
			-0.259692 -0.153481 -0.953417
			-0.175163 -0.058096 -0.982824
			-0.163287 -0.125868 -0.978517
			-0.232840 -0.137858 -0.962695
			-0.231783 -0.216094 -0.948462
			-0.268657 -0.201564 -0.941911
			-0.166876 -0.260824 -0.950854
			-0.069113 -0.394220 -0.916414
			-0.032819 -0.717469 -0.695817
			-0.136427 -0.455624 -0.879656
			 0.055174 -0.745789 -0.663893
			 0.210052 -0.736035 -0.643530
			 0.021138 -0.786286 -0.617501
			-0.155038 -0.978070  0.139080
			-0.167045 -0.979253 -0.114712
			-0.074207 -0.925872  0.370477
			 0.204955 -0.958855  0.196442
			 0.370201 -0.912565 -0.173714
			-0.144018 -0.951656 -0.271312
			-0.120892 -0.873659 -0.471280
			-0.089293 -0.727169 -0.680626
			-0.039102 -0.536520 -0.842981
			-0.328212 -0.126392 -0.936110
			-0.001063 -0.128780 -0.991673
			 0.117640 -0.087336 -0.989208
			-0.035421  0.079801 -0.996181
			 0.042099 -0.116167 -0.992337
			 0.032149 -0.141728 -0.989383
			 0.000408 -0.097423 -0.995243
			-0.030758  0.177018 -0.983727
			-0.262999  0.142434 -0.954224
			-0.234789 -0.576616 -0.782552
			-0.421579 -0.704188 -0.571307
			-0.385785 -0.309859 -0.868998
			-0.449675 -0.429438 -0.783183
			-0.501714 -0.522759 -0.689207
			-0.347790 -0.777817 -0.523491
			-0.337453 -0.805934 -0.486411
			-0.080969 -0.710872 -0.698645
			-0.062183 -0.828378 -0.556708
			 0.139570 -0.867175 -0.478046
			 0.191545 -0.610882 -0.768201
			-0.101497 -0.832177 -0.545142
			 0.392384 -0.825673 -0.405338
			 0.485496 -0.654281 -0.579836
			-0.298485 -0.002232 -0.954412
			-0.227820 -0.058137 -0.971966
			-0.341820 -0.107362 -0.933613
			-0.245719 -0.317688 -0.915804
			-0.345115 -0.238628 -0.907718
			-0.062337 -0.997298  0.038876
			 0.092440 -0.969675  0.226241
			-0.050182 -0.906433  0.419359
			 0.089019 -0.993124 -0.076027
			-0.169539 -0.726194  0.666257
			 0.074684 -0.739037  0.669512
			 0.381679 -0.860783  0.336709
			 0.592419 -0.760770 -0.265084
			-0.066695 -0.909219 -0.410941
			-0.047367 -0.827874 -0.558911
			 0.002981 -0.740090 -0.672501
			-0.062621 -0.312152 -0.947966
			-0.119592 -0.104387 -0.987320
			 0.083957 -0.680684 -0.727751
			 0.132925 -0.664496 -0.735375
			-0.138225 -0.533028 -0.834730
			 0.448282 -0.675006 -0.586012
			 0.783084 -0.621374 -0.025953
			-0.397694  0.015611 -0.917385
			-0.035951  0.421362 -0.906180
			 0.004275  0.549393 -0.835553
			-0.051303  0.097622 -0.993900
			 0.032227  0.268067 -0.962861
			 0.058002  0.613354 -0.787676
			 0.051667  0.699217 -0.713040
			 0.031892  0.493558 -0.869128
			-0.179063  0.310020 -0.933715
			-0.246909  0.307146 -0.919074
			-0.319658  0.289830 -0.902118
			-0.300136  0.039009 -0.953098
			-0.380439  0.009318 -0.924759
			-0.331200 -0.283566 -0.899943
			-0.575173 -0.588898 -0.567781
			-0.425693 -0.340964 -0.838170
			-0.304377 -0.243357 -0.920941
			-0.505145 -0.557198 -0.659060
			-0.515349 -0.691686 -0.505950
			-0.557115 -0.780160 -0.284559
			-0.126106 -0.925246 -0.357794
			-0.404025 -0.805926 -0.432721
			 0.509137 -0.678320 -0.529775
			 0.547520 -0.549442 -0.631138
			-0.222207 -0.731274 -0.644875
			-0.256348 -0.753923 -0.604885
			-0.078570 -0.865757 -0.494259
			 0.279924 -0.757104 -0.590284
			 0.145335 -0.783863 -0.603686
			 0.717557 -0.625304 -0.306770
			 0.737167 -0.575655 -0.353844
			-0.286635 -0.015915 -0.957908
			-0.299115 -0.148601 -0.942575
			-0.355667 -0.188813 -0.915342
			 0.179494 -0.895293  0.407716
			 0.006655 -0.792456  0.609892
			 0.575062 -0.799463  0.173674
			 0.213175 -0.938402 -0.271954
			 0.097001 -0.860860 -0.499510
			 0.040127 -0.882219 -0.469127
			 0.219146 -0.885775  0.409119
			-0.003864 -0.498869  0.866669
			 0.008120 -0.618439  0.785791
			 0.348718 -0.679754  0.645237
			 0.219764 -0.415057  0.882854
			 0.080357 -0.640830  0.763466
			 0.581266 -0.643682  0.497798
			 0.756930 -0.650281  0.064739
			-0.123585  0.074776 -0.989513
			 0.014238  0.099364 -0.994949
			-0.137703  0.172150 -0.975398
			 0.144061 -0.864828 -0.480956
			 0.334857 -0.817990 -0.467722
			 0.643567 -0.698358 -0.313239
			 0.656083 -0.006038 -0.754665
			 0.872714 -0.488230  0.001413
			 0.817820 -0.550053 -0.169149
			 0.862142 -0.487446  0.138231
			 0.856841 -0.470362  0.211146
			 0.986572 -0.054239  0.154055
			 0.870747 -0.070125  0.486706
			 0.988879 -0.128498 -0.074875
			 0.755282 -0.566130  0.330222
			 0.053052  0.646498 -0.761069
			 0.126147  0.353137 -0.927028
			-0.116623  0.413982 -0.902783
			 0.116902  0.387305 -0.914510
			 0.057003  0.674740 -0.735851
			-0.022655  0.443618 -0.895930
			-0.140493  0.405942 -0.903035
			-0.164192  0.377259 -0.911437
			-0.114784  0.386339 -0.915187
			-0.015480  0.489642 -0.871786
			-0.146870  0.810037 -0.567687
			 0.167136  0.544883 -0.821686
			 0.531355  0.786354 -0.315134
			-0.065627  0.983253 -0.170017
			-0.275226  0.438503 -0.855550
			-0.255918  0.172129 -0.951251
			-0.352312  0.435875 -0.828184
			-0.241210 -0.108140 -0.964429
			-0.199802  0.026144 -0.979487
			-0.651274 -0.573025 -0.497478
			-0.475876 -0.394773 -0.785937
			-0.688112 -0.681001 -0.250477
			-0.355932 -0.181710 -0.916676
			-0.650671 -0.646139 -0.398912
			-0.575892 -0.802737 -0.154793
			-0.562785 -0.800194 -0.207272
			-0.624924 -0.748546 -0.221695
			-0.430999 -0.817889 -0.381178
			 0.758180 -0.614804 -0.217209
			 0.315971 -0.850174 -0.421149
			 0.243184 -0.850962 -0.465538
			 0.471129 -0.859149 -0.199750
			-0.363602 -0.887425 -0.283320
			 0.049450 -0.998770 -0.003580
			-0.448962 -0.891720 -0.057176
			 0.862368 -0.503764 -0.050443
			-0.291083 -0.184406 -0.938757
			 0.171331 -0.723400  0.668833
			 0.849819 -0.520305  0.084199
			 0.491721 -0.860404 -0.133850
			 0.530491 -0.573980  0.623799
			 0.856839 -0.486966  0.169388
			 0.859049 -0.486062  0.160555
			 0.108979 -0.368068  0.923390
			 0.083319 -0.291925  0.952805
			 0.136767 -0.282272  0.949535
			-0.005432 -0.312408  0.949932
			 0.135044 -0.348760  0.927432
			 0.153272 -0.365475  0.918115
			 0.135980 -0.438986  0.888145
			 0.178487 -0.108522  0.977939
			 0.070250 -0.211188  0.974918
			 0.030009 -0.234371  0.971684
			 0.412726 -0.139282  0.900143
			 0.541571 -0.431202  0.721641
			 0.846626 -0.517642  0.123577
			 0.735188 -0.306598  0.604563
			-0.058181  0.444243 -0.894015
			 0.325732  0.534916 -0.779592
			-0.163026  0.455653 -0.875101
			 0.433998  0.853560 -0.288238
			 0.893987 -0.426147  0.138511
			 0.915299 -0.399798  0.048874
			 0.797054 -0.501327  0.336713
			 0.917278 -0.328989  0.224426
			 0.824560 -0.002599  0.565768
			 0.547967 -0.113809  0.828722
			 0.662341 -0.567005  0.489704
			 0.718980 -0.542091  0.434977
			 0.706428  0.688967  0.162123
			 0.913402 -0.345462  0.215296
			 0.536565 -0.733530  0.417171
			 0.689747 -0.591959  0.416933
			 0.494016 -0.753764  0.433346
			 0.238365  0.277035 -0.930824
			 0.233250  0.284991 -0.929717
			-0.045786  0.551791 -0.832724
			-0.254021  0.574429 -0.778142
			-0.215633  0.747012 -0.628869
			-0.242001  0.969307  0.043359
			 0.163059  0.904946 -0.393044
			 0.547781  0.836621  0.000633
			 0.294819  0.940119 -0.171053
			-0.043366  0.981161 -0.188261
			-0.287659  0.347270 -0.892556
			-0.226199  0.082983 -0.970540
			-0.488271  0.141574 -0.861132
			-0.708868 -0.294587 -0.640878
			-0.741166 -0.538035 -0.401488
			-0.675490 -0.729384 -0.108225
			-0.611359 -0.712234 -0.344910
			-0.678315 -0.698514 -0.227962
			-0.861123 -0.486885  0.146323
			-0.859177 -0.471323  0.199174
			-0.863999 -0.500944 -0.050605
			-0.852154 -0.493250  0.174752
			-0.580438 -0.814125  0.017080
			-0.593324 -0.799056 -0.097350
			-0.602863 -0.789906 -0.112273
			-0.575965 -0.770265 -0.273781
			 0.896025 -0.439705  0.061636
			 0.679243 -0.722706 -0.127770
			 0.824471 -0.562806  0.059136
			 0.455453 -0.890144  0.014370
			 0.338737 -0.914263  0.222218
			-0.326755 -0.913320  0.243060
			-0.123558 -0.894596  0.429455
			 0.091227 -0.873324  0.478522
			-0.597602 -0.795412  0.100956
			-0.661416 -0.704683  0.256810
			 0.212192 -0.326029  0.921238
			 0.295185 -0.274147  0.915265
			 0.734664 -0.266590  0.623858
			 0.391616 -0.067230  0.917669
			 0.112267 -0.360565  0.925953
			 0.143423 -0.396857  0.906606
			 0.160979 -0.344019  0.925061
			 0.084696 -0.301818  0.949596
			 0.092912 -0.277601  0.956193
			-0.090975 -0.248873  0.964254
			-0.077002 -0.299676  0.950929
			-0.000755  0.026962  0.999636
			 0.046159 -0.232400  0.971524
			 0.034930 -0.443167  0.895758
			 0.093403  0.088246  0.991710
			 0.240323 -0.029872  0.970233
			 0.522214 -0.035670  0.852068
			 0.442115  0.013142  0.896862
			 0.587217 -0.075357  0.805914
			 0.304703  0.034079  0.951838
			 0.668380  0.001767  0.743818
			 0.835932 -0.182510  0.517598
			 0.097899  0.973355  0.207353
			 0.555234  0.063949  0.829232
			 0.406113 -0.490495  0.771030
			 0.642791 -0.621758  0.447478
			 0.601281 -0.662364  0.446918
			 0.555628 -0.673764  0.487155
			 0.592363 -0.617397  0.517617
			 0.514081  0.781484  0.353558
			 0.847052  0.097583  0.522475
			 0.745846 -0.457882  0.483796
			 0.789702 -0.484355  0.376525
			-0.238762  0.688512 -0.684795
			-0.210251  0.950008 -0.230822
			-0.322923  0.911856 -0.253455
			-0.216704  0.895648 -0.388399
			-0.208388  0.866526 -0.453550
			 0.003913  0.999822 -0.018459
			 0.122469  0.935585  0.331183
			 0.016177  0.921409  0.388258
			 0.440903  0.887409  0.134574
			-0.058527  0.938131 -0.341299
			 0.351605  0.872301 -0.339802
			 0.091556  0.944842 -0.314469
			-0.837114  0.243942 -0.489624
			-0.912835  0.228282 -0.338554
			-0.855333  0.095243 -0.509249
			-0.696277  0.511508 -0.503544
			-0.807992 -0.456001 -0.373111
			-0.911426 -0.279379 -0.302076
			-0.900287 -0.125198 -0.416904
			-0.849489 -0.453037 -0.270417
			-0.929253 -0.330411 -0.165277
			-0.731007 -0.609838  0.306147
			-0.916692 -0.096061  0.387876
			-0.872796 -0.414971  0.256954
			-0.683066 -0.679629  0.267442
			-0.977604 -0.152017  0.145537
			 0.597561 -0.791593  0.127679
			 0.775246 -0.574027  0.263603
			 0.229454 -0.858960  0.457753
			 0.596693 -0.643687  0.479191
			-0.204912 -0.876686  0.435238
			-0.308694 -0.749833  0.585199
			-0.549140 -0.754999  0.358361
			-0.258244 -0.898950  0.353835
			-0.164242 -0.858137  0.486442
			-0.058078 -0.620063  0.782399
			 0.379597 -0.309218  0.871946
			-0.612729 -0.769640  0.179490
			-0.641949 -0.623591  0.446134
			-0.612567 -0.659551  0.435608
			-0.741736 -0.448827  0.498379
			 0.021351 -0.071936  0.997181
			 0.040250 -0.085993  0.995482
			-0.041013  0.350900  0.935514
			-0.073760  0.258430  0.963210
			-0.201594  0.063321  0.977420
			-0.043576  0.308943  0.950082
			 0.031770 -0.092474  0.995208
			 0.114716  0.035642  0.992759
			 0.134039 -0.127553  0.982733
			 0.182072 -0.177464  0.967138
			 0.010855 -0.224360  0.974446
			-0.074859 -0.409154  0.909389
			 0.071938 -0.059792  0.995615
			 0.192354 -0.272806  0.942643
			 0.074863  0.317216  0.945394
			 0.478515  0.086808  0.873778
			 0.504779  0.045714  0.862038
			 0.611453  0.001717  0.791279
			 0.350571  0.260288  0.899639
			 0.418963  0.186463  0.888652
			 0.169642  0.243672  0.954906
			 0.237673  0.287664  0.927772
			 0.633958  0.050957  0.771687
			 0.653285 -0.015173  0.756960
			 0.676751  0.037997  0.735231
			 0.783331 -0.254109  0.567292
			 0.449920  0.889413 -0.080730
			 0.777252  0.625469  0.068322
			 0.258481 -0.315671  0.912983
			 0.550597 -0.496018  0.671423
			 0.680323 -0.473541  0.559392
			 0.696093 -0.472064  0.540935
			 0.656462 -0.528561  0.538220
			 0.258594 -0.440730  0.859585
			 0.908177  0.111880  0.403357
			 0.878514 -0.010679  0.477596
			-0.087517  0.870753 -0.483869
			-0.065255  0.882219 -0.466296
			-0.139536  0.823297 -0.550193
			-0.167640  0.796080 -0.581509
			-0.090731  0.940616 -0.327122
			-0.302451  0.772060 -0.558970
			-0.334928  0.941796 -0.029056
			-0.347706  0.902721  0.253368
			-0.216357  0.945979 -0.241483
			-0.233349  0.970941 -0.053117
			-0.234090  0.970972 -0.049148
			-0.168305  0.535092  0.827858
			-0.244781  0.488654  0.837436
			-0.469336  0.463086  0.751848
			-0.316505  0.946597 -0.061471
			-0.617471  0.680555  0.394429
			-0.821321  0.555264  0.130818
			 0.216725  0.976004  0.021112
			-0.505116  0.799992 -0.323838
			 0.730581  0.651029 -0.205944
			 0.790693 -0.087723  0.605896
			-0.975322  0.173952 -0.135972
			-0.958535  0.209471 -0.193216
			-0.997901  0.055135 -0.033967
			-0.975778  0.136503 -0.170949
			-0.975503  0.015275 -0.219453
			-0.230648  0.897928 -0.374869
			-0.476646  0.838313 -0.264649
			-0.806050  0.589920 -0.047719
			-0.898043  0.436959  0.050854
			-0.912980  0.376323 -0.157632
			-0.880301 -0.339057  0.331829
			-0.789421  0.160334  0.592544
			-0.705674  0.024473  0.708114
			-0.837263  0.294503  0.460716
			-0.791218 -0.041435  0.610128
			-0.793126 -0.066020  0.605469
			-0.767526 -0.184395  0.613923
			-0.850358 -0.275251  0.448474
			-0.966391  0.174588  0.188698
			-0.510251 -0.625175  0.590594
			-0.422907 -0.479924  0.768649
			-0.319816 -0.414951  0.851783
			-0.564060 -0.640196  0.521522
			-0.103357 -0.224125  0.969064
			 0.123213 -0.265439  0.956222
			 0.231372  0.127797  0.964435
			 0.512080  0.098088  0.853319
			 0.560996  0.042087  0.826748
			-0.613596 -0.562854  0.553801
			-0.525760 -0.532258  0.663534
			-0.476795 -0.367583  0.798467
			-0.597435 -0.275693  0.753037
			-0.317434  0.186995  0.929660
			-0.435446  0.102092  0.894407
			-0.240616 -0.516300  0.821912
			-0.020620 -0.356578  0.934038
			-0.155488 -0.605678  0.780370
			-0.246758 -0.791122  0.559674
			-0.175491 -0.696759  0.695507
			-0.163081 -0.525994  0.834707
			 0.136209  0.226298  0.964488
			-0.121814  0.698713  0.704955
			 0.111239  0.711118  0.694217
			-0.005519  0.366169  0.930532
			 0.159207  0.255232  0.953682
			 0.402774  0.218813  0.888760
			 0.349212  0.266563  0.898329
			 0.145363  0.335353  0.930810
			 0.136400  0.288374  0.947753
			 0.139513  0.312663  0.939563
			 0.131318  0.203840  0.970157
			 0.205666  0.290494  0.934513
			 0.644833  0.090469  0.758950
			 0.388389 -0.730293  0.561985
			 0.005153 -0.761756  0.647843
			-0.179599  0.970791  0.159091
			 0.094529  0.981604  0.165887
			-0.115942  0.966760 -0.227886
			 0.000470  0.994247 -0.107113
			-0.277890  0.905034  0.322010
			-0.228551  0.972700  0.040250
			-0.189771  0.826147  0.530537
			-0.637161 -0.129343  0.759800
			-0.828633  0.289985  0.478828
			-0.469261 -0.498294  0.729038
			-0.550454  0.152814  0.820761
			 0.002813  0.323373  0.946268
			-0.305997  0.885931  0.348559
			-0.164343 -0.300572  0.939493
			 0.127206 -0.679830  0.722253
			-0.491697  0.858750  0.144160
			-0.868236  0.370360  0.330152
			-0.936968  0.157520  0.311894
			-0.580648  0.192851  0.790984
			-0.732072  0.257851  0.630543
			-0.699106 -0.086964  0.709710
			-0.570748 -0.017056  0.820948
			-0.597247 -0.015144  0.801914
			-0.580832  0.025824  0.813613
			-0.727740  0.339057  0.596183
			-0.733928  0.381131  0.562218
			-0.863139  0.236244  0.446295
			-0.813533  0.298546  0.499034
			-0.770465  0.363550  0.523656
			-0.768080  0.335936  0.545160
			-0.897872  0.129658  0.420732
			-0.456522 -0.520102  0.721860
			-0.290943 -0.294776  0.910197
			 0.013616  0.052129  0.998548
			 0.001190  0.172728  0.984969
			-0.096219  0.156389  0.982998
			-0.183476 -0.178565  0.966670
			-0.420456 -0.229177  0.877892
			-0.514051 -0.198159  0.834557
			-0.561780 -0.122709  0.818135
			-0.234376 -0.883170  0.406298
			-0.361306 -0.866202  0.345184
			-0.282107 -0.884799  0.370871
			-0.186393 -0.933761  0.305528
			-0.135066  0.784030  0.605850
			-0.118702  0.792036  0.598823
			 0.119076  0.810151  0.574001
			-0.132794  0.854607  0.502009
			 0.277007  0.812995  0.512158
			 0.250930  0.674620  0.694206
			-0.405162  0.366268  0.837670
			 0.149794  0.204010  0.967441
			-0.287372  0.172076  0.942235
			-0.595264  0.337332  0.729293
			-0.680611  0.313753  0.662063
			-0.251114  0.942335  0.221240
			 0.107735  0.867626  0.485405
			 0.200450  0.869359  0.451701
			 0.105092  0.964670  0.241594
			 0.026347  0.978265  0.205676
			-0.179208  0.869544  0.460193
			-0.426628 -0.614487  0.663622
			-0.331698 -0.357296  0.873107
			-0.392665 -0.773009  0.498268
			-0.111949 -0.889266  0.443480
			-0.161246  0.792210  0.588561
			-0.815647  0.281708  0.505332
			-0.273769 -0.073002  0.959021
			-0.410668  0.020876  0.911546
			-0.020716 -0.120859  0.992453
			 0.033387 -0.020248  0.999237
			 0.033208 -0.036173  0.998794
			-0.322686 -0.915618  0.239829
			-0.031034  0.057379  0.997870
		</DataArray>
	</PointData>
	<Points>
		<DataArray type="Float32" NumberOfComponents="3" format="ascii">
			 0.025949  0.000324 -0.008044
			 0.028659  0.000882 -0.006798
			 0.027299  0.001676 -0.009766
			 0.021153 -0.001778 -0.002769
			 0.026057 -0.000844 -0.003361
			 0.023994  0.002434 -0.011314
			 0.022176 -0.001334 -0.006481
			 0.027209 -0.000228 -0.005110
			 0.036915  0.001433 -0.005615
			 0.026608  0.003541 -0.011461
			 0.027640  0.005923 -0.012691
			 0.020831 -0.001723 -0.004879
			 0.024348 -0.001333 -0.001630
			 0.012996 -0.001902 -0.004248
			 0.017659 -0.002517 -0.001451
			 0.020331 -0.002424 -0.000785
			 0.027666 -0.000809 -0.000459
			 0.025574  0.005498 -0.012716
			 0.020812  0.001538 -0.010802
			 0.021068  0.000931 -0.010308
			 0.020897  0.000330 -0.009385
			 0.020753 -0.000256 -0.008528
			 0.020686 -0.001001 -0.007608
			 0.019588 -0.001354 -0.007522
			 0.038934  0.000037 -0.000188
			 0.037824  0.000538  0.003859
			 0.037782  0.000656 -0.003142
			 0.043408  0.000622 -0.003903
			 0.040883  0.000294 -0.002180
			 0.025205  0.008271 -0.013326
			 0.034237  0.011186 -0.013175
			 0.028801  0.012527 -0.013916
			 0.047571  0.013896 -0.014595
			 0.024635  0.011144 -0.013903
			 0.026667  0.011701 -0.013955
			 0.016163 -0.001962 -0.005831
			 0.018465 -0.001858 -0.006229
			 0.026165 -0.001543  0.001215
			 0.011124  0.000280 -0.007121
			 0.010704 -0.001258 -0.004689
			 0.009908 -0.001921 -0.002437
			 0.014086 -0.003209 -0.000437
			 0.011922 -0.002645 -0.001390
			 0.015536 -0.004402  0.001908
			 0.026743 -0.001994  0.003975
			 0.028885 -0.001164  0.002938
			 0.018696 -0.004417  0.002594
			 0.024063 -0.002848  0.003424
			 0.021519 -0.003302  0.002494
			 0.022592  0.008455 -0.012457
			 0.022469  0.006817 -0.012385
			 0.021650  0.005910 -0.012103
			 0.018979  0.005045 -0.011583
			 0.018582  0.002875 -0.010997
			 0.018964  0.003864 -0.011324
			 0.019653  0.002511 -0.011112
			 0.020682  0.002160 -0.011165
			 0.019377  0.000882 -0.010279
			 0.019104  0.001530 -0.010703
			 0.019227  0.000227 -0.009363
			 0.019846 -0.000596 -0.008466
			 0.018971 -0.000958 -0.008326
			 0.047292 -0.001620  0.004520
			 0.046067 -0.001571  0.002226
			 0.039865  0.000738  0.007053
			 0.032518 -0.000242  0.006683
			 0.028745 -0.001683  0.005581
			 0.047178 -0.001142 -0.000696
			 0.047039 -0.000301 -0.003091
			 0.048731  0.000445 -0.004476
			 0.054462  0.013725 -0.014349
			 0.022093  0.012990 -0.013416
			 0.033294  0.013907 -0.013503
			 0.031067  0.013198 -0.013666
			 0.031584  0.018976 -0.014125
			 0.032324  0.016399 -0.013860
			 0.048943  0.014330 -0.014633
			 0.046523  0.015537 -0.015041
			 0.038882  0.019122 -0.014704
			 0.022801  0.016557 -0.013723
			 0.015914  0.000399 -0.009266
			 0.008512 -0.000612 -0.004619
			 0.011497  0.002693 -0.008447
			 0.010838  0.001329 -0.007493
			 0.007999  0.000457 -0.005015
			 0.007358 -0.001297 -0.002312
			 0.007211 -0.003628  0.000482
			 0.009557 -0.003177 -0.001054
			 0.009632 -0.004397  0.000039
			 0.011993 -0.004990  0.001861
			 0.018857 -0.007632  0.004200
			 0.010858 -0.005522  0.002510
			 0.026187 -0.002574  0.004881
			 0.025878 -0.003324  0.005833
			 0.016173  0.010429 -0.010950
			 0.019224  0.006627 -0.011800
			 0.012978  0.008945 -0.009938
			 0.017919  0.001878 -0.010575
			 0.016205  0.001671 -0.009926
			 0.047994 -0.001902  0.002529
			 0.050012 -0.001583  0.004181
			 0.046768 -0.001096  0.007049
			 0.053579 -0.002086  0.000069
			 0.040641  0.001983  0.009056
			 0.039058  0.003419  0.010272
			 0.033635  0.000668  0.009030
			 0.027543 -0.003157  0.007289
			 0.050640 -0.001107 -0.002564
			 0.052162 -0.000379 -0.003797
			 0.053691  0.000365 -0.004944
			 0.057337  0.015027 -0.015628
			 0.051363  0.015072 -0.014770
			 0.057591  0.001231 -0.005418
			 0.058872  0.001390 -0.005388
			 0.063938  0.010442 -0.014170
			 0.060609  0.002329 -0.005772
			 0.064676  0.005772 -0.008652
			 0.019574  0.013080 -0.012364
			 0.032152  0.020733 -0.013669
			 0.035801  0.021154 -0.013776
			 0.050879  0.017602 -0.014631
			 0.046006  0.017998 -0.014781
			 0.038808  0.021357 -0.013296
			 0.048111  0.022964 -0.011667
			 0.045932  0.019991 -0.013941
			 0.024802  0.021975 -0.012345
			 0.022940  0.021229 -0.012108
			 0.019682  0.022335 -0.010835
			 0.014220  0.015356 -0.010168
			 0.016688  0.013238 -0.011060
			 0.014612  0.001889 -0.009292
			 0.002803  0.001005 -0.001234
			 0.008721  0.002284 -0.006839
			 0.013250  0.002560 -0.009095
			 0.005716  0.001405 -0.004162
			 0.004533 -0.002658  0.001042
			 0.004182 -0.002996  0.002272
			 0.009999 -0.004921  0.001237
			 0.006767 -0.005494  0.004460
			 0.023271 -0.007322  0.006871
			 0.023882 -0.006308  0.006394
			 0.010203 -0.006530  0.003894
			 0.012038 -0.008718  0.005640
			 0.014432 -0.009758  0.005914
			 0.019891 -0.008985  0.006207
			 0.017887 -0.008806  0.005371
			 0.026840 -0.003976  0.007441
			 0.026135 -0.004942  0.007620
			 0.016405  0.008632 -0.011079
			 0.007934  0.009823 -0.008057
			 0.009725  0.006308 -0.008221
			 0.049533 -0.000984  0.006282
			 0.047311  0.000465  0.009082
			 0.059397 -0.000493 -0.000718
			 0.058160 -0.000556 -0.002413
			 0.057441 -0.000008 -0.004034
			 0.054175 -0.000640 -0.003336
			 0.051732  0.000051  0.007551
			 0.047672  0.001985  0.010582
			 0.041576  0.005188  0.012098
			 0.033738  0.002643  0.011743
			 0.035675  0.006754  0.014061
			 0.039120  0.005356  0.012569
			 0.030983  0.001815  0.012673
			 0.027297 -0.003412  0.009181
			 0.057276  0.016844 -0.015890
			 0.061923  0.018436 -0.015948
			 0.056843  0.018341 -0.015341
			 0.058846  0.000183 -0.004028
			 0.059952  0.000275 -0.003925
			 0.067238  0.007768 -0.012242
			 0.068308  0.012154 -0.015525
			 0.061197  0.002315 -0.002409
			 0.060453  0.000650 -0.003882
			 0.060907  0.002322 -0.000093
			 0.060297  0.002480  0.003684
			 0.061108  0.005664  0.004189
			 0.059959  0.009385  0.007195
			 0.067997  0.022295 -0.006895
			 0.062546  0.012616  0.002647
			 0.038303  0.023551 -0.011366
			 0.039457  0.025405 -0.009923
			 0.025764  0.024905 -0.011481
			 0.034398  0.026901 -0.010809
			 0.038859  0.022699 -0.012021
			 0.048100  0.019531 -0.014120
			 0.053043  0.019635 -0.014689
			 0.054647  0.019829 -0.014873
			 0.050751  0.019527 -0.014414
			 0.040667  0.024265 -0.010461
			 0.061401  0.026443 -0.010101
			 0.039091  0.031601 -0.008395
			 0.047391  0.028011 -0.004752
			 0.056187  0.024242 -0.006119
			 0.023308  0.024107 -0.011301
			 0.013891  0.018301 -0.009633
			 0.016591  0.021822 -0.009784
			 0.007333  0.013082 -0.008446
			 0.011232  0.015581 -0.009487
			 0.002508 -0.000082  0.000370
			 0.002134  0.006596 -0.005415
			-0.002395  0.002307  0.004869
			 0.007237  0.006696 -0.007251
			 0.002423 -0.001189  0.001787
			 0.002661 -0.003475  0.008393
			 0.006544 -0.005938  0.006631
			 0.002444 -0.002890  0.006367
			 0.009400 -0.007472  0.005538
			 0.025055 -0.007032  0.008750
			 0.020164 -0.010373  0.008534
			 0.018575 -0.010262  0.007205
			 0.021663 -0.010524  0.010052
			 0.011496 -0.009249  0.007586
			 0.018797 -0.011643  0.011727
			 0.010435 -0.009297  0.009461
			 0.026757 -0.004413  0.009748
			 0.006806  0.010194 -0.007868
			 0.051894  0.001184  0.009745
			 0.060411  0.000519 -0.002484
			 0.059998  0.000028 -0.002465
			 0.057806  0.002085  0.008685
			 0.060363  0.002035  0.002193
			 0.060219  0.001427  0.001059
			 0.047291  0.005867  0.011857
			 0.048189  0.003271  0.010983
			 0.052454  0.002815  0.010468
			 0.042718  0.013582  0.015239
			 0.041856  0.009116  0.013850
			 0.039462  0.007489  0.013623
			 0.041177  0.006530  0.012967
			 0.033906  0.011943  0.015446
			 0.036914  0.013427  0.015412
			 0.039569  0.012600  0.014997
			 0.028968  0.004894  0.016370
			 0.030645  0.003854  0.015185
			 0.027660 -0.002743  0.011325
			 0.029200  0.002168  0.015622
			 0.057718  0.020502 -0.015095
			 0.064979  0.021828 -0.013722
			 0.056253  0.020310 -0.014963
			 0.066305  0.027685 -0.006699
			 0.060806  0.001814 -0.001153
			 0.060848  0.001436 -0.002549
			 0.059999  0.003433  0.006074
			 0.060907  0.004719  0.005529
			 0.060711  0.005714  0.007207
			 0.057714  0.008344  0.008939
			 0.059708  0.013864  0.008879
			 0.060921  0.014566  0.007500
			 0.069257  0.026648 -0.003259
			 0.069799  0.019407  0.003148
			 0.063360  0.015768  0.006857
			 0.064062  0.017055  0.008051
			 0.061890  0.014745  0.006631
			 0.036586  0.026658 -0.010364
			 0.038082  0.027669 -0.009573
			 0.031147  0.027364 -0.010745
			 0.025891  0.027604 -0.009624
			 0.027199  0.032821 -0.005656
			 0.059917  0.026007 -0.005011
			 0.034790  0.035368 -0.005416
			 0.046424  0.032204  0.005432
			 0.048972  0.028393  0.009520
			 0.056256  0.025719 -0.000019
			 0.013688  0.021042 -0.008997
			 0.008667  0.015877 -0.009014
			 0.002138  0.016395 -0.007058
			-0.003443  0.010105 -0.003191
			-0.003918  0.005104  0.002324
			-0.001037 -0.001402  0.010231
			-0.000516 -0.000750  0.008619
			 0.000909 -0.001706  0.007304
			-0.005403  0.005648  0.008279
			-0.005036  0.005682  0.010514
			-0.005695  0.005525  0.006122
			-0.005593  0.005633  0.007095
			 0.000426 -0.002368  0.011095
			 0.003098 -0.003973  0.009948
			 0.004466 -0.005060  0.009465
			-0.000084 -0.001849  0.009754
			 0.027110 -0.003834  0.012124
			 0.024415 -0.008367  0.011624
			 0.025193 -0.008015  0.013983
			 0.022727 -0.010033  0.012257
			 0.022067 -0.009433  0.017498
			 0.014223 -0.009869  0.017618
			 0.016495 -0.009467  0.019842
			 0.018534 -0.009056  0.020561
			 0.003367 -0.004423  0.011849
			 0.001553 -0.001737  0.016643
			 0.054734  0.002722  0.010007
			 0.056348  0.003089  0.009715
			 0.059804  0.004473  0.007861
			 0.057380  0.004163  0.009565
			 0.045014  0.009839  0.013781
			 0.047011  0.008905  0.013075
			 0.049171  0.007583  0.012134
			 0.048720  0.004552  0.011277
			 0.049435  0.005942  0.011732
			 0.041868  0.016362  0.016041
			 0.044257  0.014651  0.015780
			 0.033685  0.024138  0.017053
			 0.048633  0.014098  0.015868
			 0.048181  0.010404  0.013665
			 0.025528  0.022020  0.017669
			 0.032104  0.010692  0.015793
			 0.027143  0.005685  0.017461
			 0.028742  0.007579  0.016836
			 0.027758  0.003203  0.016838
			 0.030462  0.009495  0.016219
			 0.026878  0.001533  0.017490
			 0.026861 -0.001729  0.017612
			 0.062472  0.025437  0.001022
			 0.058330  0.005697  0.008800
			 0.053390  0.010925  0.013713
			 0.062900  0.017365  0.010547
			 0.060611  0.015242  0.010462
			 0.059948  0.015284  0.011413