<?xml version="1.0"?>
<VTKFile type="PolyData" version="0.1" byte_order="LittleEndian" compressor="vtkZLibDataCompressor">
	<PolyData>
		<Piece NumberOfPoints="550" NumberOfVerts="0" NumberOfLines="0" NumberOfStrips="0" NumberOfPolys="1096">
		<PointData Normals="Normals">
		<DataArray type="Float32" Name="Normals" NumberOfComponents="3" format="ascii">
			 0.231140 -0.910115  0.343898
			 0.229986 -0.899986  0.370314
			 0.249900 -0.748653  0.614059
			 0.170989 -0.972358  0.159006
			 0.189243 -0.967744  0.166309
			 0.144390 -0.714642  0.684425
			 0.217619 -0.919252  0.328050
			 0.166961 -0.959490  0.226942
			 0.098983 -0.890207  0.444673
			 0.213548 -0.536039  0.816737
			 0.121475 -0.381907  0.916183
			 0.095508 -0.993540  0.061292
			 0.203117 -0.964541  0.168533
			-0.075377 -0.953110  0.293087
			 0.090569 -0.947275  0.307357
			 0.201511 -0.930388  0.306220
			 0.221430 -0.961494  0.162783
			-0.079811 -0.274755  0.958196
			-0.002225 -0.538431  0.842667
			 0.082814 -0.744265  0.662730
			 0.119039 -0.831868  0.542057
			 0.166862 -0.773782  0.611080
			 0.203394 -0.791950  0.575714
			 0.124463 -0.899862  0.418040
			-0.097054 -0.992994  0.067401
			 0.083886 -0.996475  0.001232
			 0.047733 -0.962080  0.268558
			-0.036797 -0.819179  0.572356
			-0.093371 -0.961095  0.259960
			-0.176263 -0.227353  0.957727
			 0.023298 -0.084392  0.996160
			 0.096672 -0.113450  0.988830
			-0.026971 -0.301546  0.953070
			-0.090352 -0.114272  0.989332
			 0.035224 -0.116004  0.992624
			-0.098066 -0.937454  0.334011
			 0.068693 -0.977743  0.198239
			 0.204345 -0.966450  0.155621
			-0.341936 -0.648776  0.679830
			-0.218137 -0.871587  0.439035
			-0.182281 -0.841266  0.508965
			 0.082640 -0.869872  0.486305
			-0.035484 -0.872433  0.487443
			 0.119811 -0.768432  0.628615
			 0.325013 -0.898088  0.296318
			 0.218250 -0.964920  0.145933
			 0.294251 -0.748831  0.593859
			 0.340444 -0.849334  0.403397
			 0.311159 -0.869548  0.383492
			-0.259697 -0.153478  0.953416
			-0.175163 -0.058089  0.982824
			-0.163291 -0.125859  0.978517
			-0.232842 -0.137861  0.962694
			-0.231787 -0.216093  0.948461
			-0.268672 -0.201542  0.941911
			-0.166882 -0.260830  0.950851
			-0.069125 -0.394207  0.916419
			-0.032823 -0.717488  0.695797
			-0.136435 -0.455628  0.879652
			 0.055167 -0.745784  0.663900
			 0.210036 -0.736048  0.643520
			 0.021175 -0.786288  0.617497
			-0.155034 -0.978069 -0.139086
			-0.167049 -0.979252  0.114716
			-0.074206 -0.925871 -0.370482
			 0.204956 -0.958855 -0.196443
			 0.370207 -0.912564  0.173704
			-0.144021 -0.951657  0.271305
			-0.120891 -0.873657  0.471284
			-0.089295 -0.727164  0.680631
			-0.039102 -0.536520  0.842981
			-0.328210 -0.126393  0.936110
			-0.001058 -0.128792  0.991671
			 0.117656 -0.087343  0.989206
			-0.035426  0.079805  0.996181
			 0.042108 -0.116177  0.992336
			 0.032143 -0.141729  0.989383
			 0.000412 -0.097428  0.995243
			-0.030755  0.177018  0.983727
			-0.263002  0.142436  0.954223
			-0.234783 -0.576615  0.782555
			-0.421569 -0.704207  0.571291
			-0.385778 -0.309858  0.869001
			-0.449662 -0.429436  0.783191
			-0.501710 -0.522769  0.689202
			-0.347799 -0.777811  0.523494
			-0.337457 -0.805933  0.486411
			-0.080963 -0.710885  0.698633
			-0.062184 -0.828363  0.556730
			 0.139574 -0.867180  0.478034
			 0.191546 -0.610890  0.768195
			-0.101503 -0.832191  0.545119
			 0.392379 -0.825682  0.405325
			 0.485498 -0.654279  0.579836
			-0.298482 -0.002230  0.954413
			-0.227818 -0.058133  0.971967
			-0.341817 -0.107367  0.933613
			-0.245712 -0.317706  0.915799
			-0.345122 -0.238630  0.907715
			-0.062340 -0.997297 -0.038878
			 0.092427 -0.969678 -0.226234
			-0.050188 -0.906438 -0.419347
			 0.089015 -0.993124  0.076027
			-0.169547 -0.726195 -0.666254
			 0.074684 -0.739035 -0.669514
			 0.381679 -0.860784 -0.336709
			 0.592427 -0.760761  0.265090
			-0.066696 -0.909219  0.410941
			-0.047375 -0.827869  0.558918
			 0.002977 -0.740091  0.672500
			-0.062626 -0.312144  0.947968
			-0.119599 -0.104386  0.987320
			 0.083959 -0.680693  0.727742
			 0.132932 -0.664498  0.735372
			-0.138222 -0.533030  0.834730
			 0.448294 -0.675004  0.586005
			 0.783086 -0.621372  0.025951
			-0.397695  0.015620  0.917385
			-0.035953  0.421363  0.906179
			 0.004287  0.549393  0.835553
			-0.051300  0.097621  0.993901
			 0.032219  0.268073  0.962860
			 0.058000  0.613367  0.787665
			 0.051661  0.699217  0.713040
			 0.031875  0.493563  0.869126
			-0.179075  0.310019  0.933713
			-0.246918  0.307144  0.919072
			-0.319654  0.289825  0.902121
			-0.300136  0.039012  0.953098
			-0.380444  0.009332  0.924757
			-0.331209 -0.283571  0.899938
			-0.575172 -0.588908  0.567771
			-0.425690 -0.340964  0.838171
			-0.304374 -0.243372  0.920938
			-0.505149 -0.557193  0.659060
			-0.515351 -0.691676  0.505963
			-0.557112 -0.780156  0.284574
			-0.126116 -0.925252  0.357776
			-0.404023 -0.805926  0.432722
			 0.509136 -0.678318  0.529778
			 0.547526 -0.549441  0.631134
			-0.222205 -0.731277  0.644871
			-0.256345 -0.753913  0.604899
			-0.078563 -0.865756  0.494262
			 0.279924 -0.757110  0.590277
			 0.145346 -0.783873  0.603671
			 0.717555 -0.625303  0.306775
			 0.737162 -0.575663  0.353843
			-0.286627 -0.015922  0.957910
			-0.299132 -0.148592  0.942571
			-0.355673 -0.188819  0.915338
			 0.179478 -0.895304 -0.407699
			 0.006656 -0.792467 -0.609879
			 0.575052 -0.799468 -0.173684
			 0.213175 -0.938401  0.271955
			 0.097000 -0.860862  0.499507
			 0.040123 -0.882217  0.469131
			 0.219153 -0.885775 -0.409115
			-0.003866 -0.498869 -0.866669
			 0.008111 -0.618429 -0.785799
			 0.348714 -0.679756 -0.645237
			 0.219767 -0.415062 -0.882851
			 0.080357 -0.640829 -0.763467
			 0.581264 -0.643686 -0.497797
			 0.756925 -0.650287 -0.064748
			-0.123593  0.074799  0.989510
			 0.014235  0.099366  0.994949
			-0.137712  0.172155  0.975396
			 0.144051 -0.864833  0.480951
			 0.334880 -0.817987  0.467709
			 0.643569 -0.698355  0.313238
			 0.656088 -0.006040  0.754660
			 0.872704 -0.488248 -0.001406
			 0.817822 -0.550049  0.169153
			 0.862138 -0.487449 -0.138247
			 0.856837 -0.470370 -0.211145
			 0.986574 -0.054234 -0.154046
			 0.870751 -0.070116 -0.486700
			 0.988879 -0.128500  0.074876
			 0.755280 -0.566131 -0.330223
			 0.053070  0.646481  0.761082
			 0.126143  0.353151  0.927023
			-0.116629  0.413985  0.902781
			 0.116907  0.387308  0.914508
			 0.057018  0.674726  0.735863
			-0.022660  0.443616  0.895931
			-0.140491  0.405939  0.903037
			-0.164171  0.377249  0.911445
			-0.114780  0.386346  0.915184
			-0.015471  0.489627  0.871795
			-0.146871  0.810034  0.567692
			 0.167136  0.544883  0.821686
			 0.531357  0.786354  0.315130
			-0.065631  0.983252  0.170022
			-0.275232  0.438509  0.855545
			-0.255917  0.172119  0.951253
			-0.352307  0.435873  0.828187
			-0.241222 -0.108133  0.964427
			-0.199802  0.026151  0.979487
			-0.651268 -0.573028  0.497482
			-0.475881 -0.394764  0.785938
			-0.688111 -0.681003  0.250475
			-0.355946 -0.181716  0.916669
			-0.650661 -0.646130  0.398944
			-0.575889 -0.802740  0.154794
			-0.562787 -0.800192  0.207275
			-0.624919 -0.748555  0.221681
			-0.430994 -0.817885  0.381192
			 0.758185 -0.614795  0.217215
			 0.315956 -0.850170  0.421168
			 0.243184 -0.850961  0.465540
			 0.471135 -0.859146  0.199751
			-0.363599 -0.887423  0.283331
			 0.049448 -0.998770  0.003583
			-0.448964 -0.891719  0.057173
			 0.862368 -0.503762  0.050452
			-0.291111 -0.184395  0.938751
			 0.171334 -0.723406 -0.668826
			 0.849812 -0.520321 -0.084181
			 0.491716 -0.860406  0.133852
			 0.530494 -0.573975 -0.623802
			 0.856817 -0.486991 -0.169421
			 0.859030 -0.486086 -0.160585
			 0.108974 -0.368070 -0.923390
			 0.083319 -0.291914 -0.952809
			 0.136761 -0.282279 -0.949534
			-0.005432 -0.312410 -0.949932
			 0.135054 -0.348771 -0.927426
			 0.153276 -0.365502 -0.918104
			 0.135981 -0.438998 -0.888139
			 0.178495 -0.108521 -0.977938
			 0.070250 -0.211183 -0.974919
			 0.030002 -0.234358 -0.971687
			 0.412735 -0.139288 -0.900138
			 0.541578 -0.431215 -0.721628
			 0.846632 -0.517635 -0.123564
			 0.735198 -0.306603 -0.604548
			-0.058206  0.444242  0.894014
			 0.325736  0.534914  0.779592
			-0.163050  0.455655  0.875096
			 0.433997  0.853559  0.288243
			 0.893982 -0.426160 -0.138503
			 0.915295 -0.399811 -0.048851
			 0.797050 -0.501330 -0.336719
			 0.917272 -0.329008 -0.224425
			 0.824556 -0.002608 -0.565774
			 0.547969 -0.113802 -0.828721
			 0.662342 -0.567007 -0.489699
			 0.718972 -0.542106 -0.434972
			 0.706426  0.688969 -0.162124
			 0.913401 -0.345463 -0.215299
			 0.536583 -0.733524 -0.417159
			 0.689757 -0.591960 -0.416917
			 0.493989 -0.753779 -0.433349
			 0.238365  0.277057  0.930818
			 0.233240  0.284984  0.929722
			-0.045786  0.551790  0.832725
			-0.254025  0.574433  0.778138
			-0.215633  0.747013  0.628868
			-0.242013  0.969304 -0.043356
			 0.163058  0.904948  0.393041
			 0.547783  0.836620 -0.000633
			 0.294815  0.940120  0.171052
			-0.043369  0.981160  0.188265
			-0.287658  0.347267  0.892557
			-0.226196  0.082984  0.970541
			-0.488272  0.141573  0.861131
			-0.708869 -0.294588  0.640877
			-0.741164 -0.538031  0.401495
			-0.675499 -0.729376  0.108223
			-0.611361 -0.712242  0.344890
			-0.678309 -0.698538  0.227907
			-0.861123 -0.486883 -0.146327
			-0.859178 -0.471320 -0.199176
			-0.864000 -0.500943  0.050598
			-0.852143 -0.493258 -0.174779
			-0.580443 -0.814121 -0.017092
			-0.593320 -0.799058  0.097356
			-0.602865 -0.789904  0.112275
			-0.575986 -0.770246  0.273790
			 0.896029 -0.439699 -0.061618
			 0.679248 -0.722703  0.127761
			 0.824472 -0.562804 -0.059141
			 0.455453 -0.890143 -0.014379
			 0.338745 -0.914260 -0.222220
			-0.326759 -0.913320 -0.243053
			-0.123572 -0.894593 -0.429457
			 0.091229 -0.873320 -0.478528
			-0.597601 -0.795412 -0.100962
			-0.661421 -0.704679 -0.256809
			 0.212194 -0.326034 -0.921236
			 0.295183 -0.274153 -0.915264
			 0.734656 -0.266604 -0.623861
			 0.391621 -0.067234 -0.917667
			 0.112264 -0.360563 -0.925954
			 0.143403 -0.396855 -0.906610
			 0.160963 -0.344027 -0.925060
			 0.084703 -0.301798 -0.949602
			 0.092900 -0.277615 -0.956190
			-0.090973 -0.248861 -0.964257
			-0.077001 -0.299665 -0.950932
			-0.000757  0.026965 -0.999636
			 0.046157 -0.232401 -0.971524
			 0.034915 -0.443161 -0.895762
			 0.093405  0.088258 -0.991709
			 0.240343 -0.029874 -0.970228
			 0.522207 -0.035684 -0.852072
			 0.442111  0.013144 -0.896864
			 0.587208 -0.075371 -0.805920
			 0.304706  0.034079 -0.951836
			 0.668389  0.001760 -0.743810
			 0.835929 -0.182509 -0.517603
			 0.097886  0.973356 -0.207356
			 0.555231  0.063934 -0.829235
			 0.406111 -0.490492 -0.771032
			 0.642790 -0.621761 -0.447477
			 0.601270 -0.662368 -0.446927
			 0.555624 -0.673765 -0.487157
			 0.592363 -0.617396 -0.517618
			 0.514088  0.781481 -0.353555
			 0.847053  0.097588 -0.522473
			 0.745848 -0.457885 -0.483790
			 0.789701 -0.484359 -0.376522
			-0.238764  0.688509  0.684797
			-0.210249  0.950008  0.230824
			-0.322930  0.911852  0.253461
			-0.216708  0.895652  0.388387
			-0.208395  0.866533  0.453533
			 0.003896  0.999822  0.018457
			 0.122470  0.935585 -0.331183
			 0.016181  0.921410 -0.388255
			 0.440909  0.887406 -0.134574
			-0.058522  0.938129  0.341305
			 0.351603  0.872303  0.339799
			 0.091555  0.944842  0.314469
			-0.837114  0.243938  0.489626
			-0.912837  0.228291  0.338544
			-0.855333  0.095242  0.509248
			-0.696277  0.511507  0.503546
			-0.807991 -0.456006  0.373108
			-0.911424 -0.279378  0.302081
			-0.900281 -0.125205  0.416915
			-0.849488 -0.453041  0.270415
			-0.929254 -0.330405  0.165284
			-0.731011 -0.609823 -0.306167
			-0.916693 -0.096065 -0.387873
			-0.872795 -0.414973 -0.256956
			-0.683079 -0.679608 -0.267462
			-0.977603 -0.152017 -0.145542
			 0.597557 -0.791595 -0.127683
			 0.775243 -0.574030 -0.263606
			 0.229467 -0.858958 -0.457751
			 0.596699 -0.643691 -0.479179
			-0.204914 -0.876687 -0.435236
			-0.308694 -0.749830 -0.585203
			-0.549140 -0.754987 -0.358384
			-0.258243 -0.898950 -0.353835
			-0.164242 -0.858138 -0.486441
			-0.058081 -0.620063 -0.782399
			 0.379606 -0.309221 -0.871941
			-0.612751 -0.769620 -0.179500
			-0.641949 -0.623598 -0.446124
			-0.612567 -0.659551 -0.435608
			-0.741738 -0.448823 -0.498380
			 0.021346 -0.071953 -0.997180
			 0.040245 -0.086005 -0.995482
			-0.041014  0.350918 -0.935507
			-0.073769  0.258428 -0.963210
			-0.201593  0.063324 -0.977420
			-0.043583  0.308948 -0.950080
			 0.031771 -0.092479 -0.995208
			 0.114714  0.035626 -0.992760
			 0.134042 -0.127566 -0.982731
			 0.182077 -0.177469 -0.967136
			 0.010858 -0.224356 -0.974447
			-0.074858 -0.409154 -0.909389
			 0.071944 -0.059793 -0.995615
			 0.192357 -0.272804 -0.942643
			 0.074860  0.317218 -0.945394
			 0.478517  0.086808 -0.873777
			 0.504790  0.045704 -0.862031
			 0.611447  0.001716 -0.791284
			 0.350571  0.260300 -0.899635
			 0.418962  0.186467 -0.888651
			 0.169639  0.243672 -0.954906
			 0.237675  0.287673 -0.927769
			 0.633968  0.050950 -0.771679
			 0.653293 -0.015168 -0.756953
			 0.676741  0.037981 -0.735241
			 0.783332 -0.254117 -0.567288
			 0.449908  0.889418  0.080733
			 0.777251  0.625471 -0.068318
			 0.258477 -0.315660 -0.912989
			 0.550595 -0.496006 -0.671433
			 0.680313 -0.473546 -0.559400
			 0.696089 -0.472062 -0.540941
			 0.656461 -0.528562 -0.538221
			 0.258593 -0.440731 -0.859585
			 0.908184  0.111868 -0.403344
			 0.878521 -0.010674 -0.477584
			-0.087530  0.870748  0.483877
			-0.065252  0.882221  0.466291
			-0.139534  0.823303  0.550184
			-0.167634  0.796080  0.581511
			-0.090728  0.940617  0.327122
			-0.302455  0.772053  0.558976
			-0.334935  0.941793  0.029062
			-0.347705  0.902720 -0.253373
			-0.216360  0.945975  0.241494
			-0.233348  0.970941  0.053134
			-0.234101  0.970968  0.049167
			-0.168303  0.535091 -0.827860
			-0.244789  0.488675 -0.837422
			-0.469340  0.463090 -0.751843
			-0.316504  0.946597  0.061471
			-0.617463  0.680549 -0.394453
			-0.821328  0.555257 -0.130802
			 0.216729  0.976004 -0.021108
			-0.505111  0.799991  0.323847
			 0.730577  0.651033  0.205946
			 0.790691 -0.087724 -0.605897
			-0.975321  0.173952  0.135977
			-0.958538  0.209457  0.193217
			-0.997901  0.055140  0.033963
			-0.975777  0.136522  0.170941
			-0.975502  0.015273  0.219460
			-0.230639  0.897931  0.374868
			-0.476651  0.838312  0.264646
			-0.806057  0.589911  0.047718
			-0.898048  0.436949 -0.050858
			-0.912995  0.376299  0.157606
			-0.880300 -0.339053 -0.331835
			-0.789422  0.160348 -0.592538
			-0.705669  0.024480 -0.708119
			-0.837261  0.294496 -0.460724
			-0.791217 -0.041469 -0.610128
			-0.793125 -0.066036 -0.605468
			-0.767528 -0.184387 -0.613923
			-0.850362 -0.275256 -0.448462
			-0.966392  0.174574 -0.188707
			-0.510241 -0.625163 -0.590614
			-0.422918 -0.479937 -0.768636
			-0.319819 -0.414953 -0.851781
			-0.564046 -0.640187 -0.521549
			-0.103370 -0.224123 -0.969063
			 0.123194 -0.265448 -0.956222
			 0.231363  0.127792 -0.964438
			 0.512079  0.098082 -0.853320
			 0.561014  0.042089 -0.826736
			-0.613586 -0.562847 -0.553819
			-0.525764 -0.532252 -0.663536
			-0.476796 -0.367580 -0.798468
			-0.597441 -0.275695 -0.753032
			-0.317432  0.187003 -0.929660
			-0.435438  0.102088 -0.894412
			-0.240616 -0.516293 -0.821916
			-0.020621 -0.356587 -0.934035
			-0.155467 -0.605663 -0.780386
			-0.246753 -0.791131 -0.559664
			-0.175482 -0.696757 -0.695511
			-0.163076 -0.525995 -0.834707
			 0.136204  0.226304 -0.964487
			-0.121820  0.698723 -0.704944
			 0.111237  0.711124 -0.694211
			-0.005515  0.366168 -0.930532
			 0.159209  0.255243 -0.953679
			 0.402774  0.218803 -0.888762
			 0.349197  0.266570 -0.898333
			 0.145363  0.335347 -0.930813
			 0.136397  0.288372 -0.947754
			 0.139518  0.312656 -0.939564
			 0.131316  0.203853 -0.970155
			 0.205666  0.290497 -0.934512
			 0.644842  0.090450 -0.758945
			 0.388398 -0.730287 -0.561985
			 0.005148 -0.761764 -0.647834
			-0.179595  0.970791 -0.159092
			 0.094523  0.981604 -0.165887
			-0.115938  0.966759  0.227891
			 0.000466  0.994246  0.107119
			-0.277878  0.905037 -0.322013
			-0.228563  0.972698 -0.040226
			-0.189771  0.826153 -0.530527
			-0.637152 -0.129349 -0.759807
			-0.828628  0.289969 -0.478847
			-0.469266 -0.498295 -0.729035
			-0.550454  0.152812 -0.820761
			 0.002817  0.323370 -0.946268
			-0.305994  0.885934 -0.348552
			-0.164340 -0.300574 -0.939493
			 0.127228 -0.679813 -0.722266
			-0.491705  0.858746 -0.144159
			-0.868234  0.370360 -0.330156
			-0.936972  0.157515 -0.311884
			-0.580644  0.192852 -0.790987
			-0.732076  0.257843 -0.630541
			-0.699103 -0.086969 -0.709712
			-0.570752 -0.017060 -0.820945
			-0.597236 -0.015135 -0.801923
			-0.580821  0.025831 -0.813622
			-0.727742  0.339059 -0.596180
			-0.733932  0.381130 -0.562214
			-0.863136  0.236228 -0.446311
			-0.813538  0.298516 -0.499044
			-0.770471  0.363510 -0.523675
			-0.768092  0.335923 -0.545152
			-0.897862  0.129646 -0.420756
			-0.456515 -0.520107 -0.721860
			-0.290951 -0.294780 -0.910193
			 0.013607  0.052125 -0.998548
			 0.001171  0.172718 -0.984971
			-0.096237  0.156377 -0.982998
			-0.183477 -0.178569 -0.966669
			-0.420451 -0.229186 -0.877892
			-0.514071 -0.198157 -0.834545
			-0.561805 -0.122701 -0.818120
			-0.234376 -0.883168 -0.406303
			-0.361308 -0.866202 -0.345181
			-0.282107 -0.884802 -0.370866
			-0.186380 -0.933762 -0.305533
			-0.135073  0.784030 -0.605849
			-0.118700  0.792044 -0.598813
			 0.119073  0.810152 -0.574000
			-0.132790  0.854602 -0.502017
			 0.277004  0.812992 -0.512164
			 0.250941  0.674613 -0.694209
			-0.405150  0.366272 -0.837674
			 0.149791  0.204005 -0.967442
			-0.287374  0.172071 -0.942235
			-0.595262  0.337330 -0.729296
			-0.680612  0.313754 -0.662062
			-0.251097  0.942335 -0.221256
			 0.107734  0.867623 -0.485411
			 0.200446  0.869361 -0.451699
			 0.105102  0.964669 -0.241595
			 0.026360  0.978265 -0.205676
			-0.179201  0.869546 -0.460193
			-0.426636 -0.614494 -0.663610
			-0.331699 -0.357290 -0.873109
			-0.392667 -0.773007 -0.498271
			-0.111938 -0.889253 -0.443508
			-0.161236  0.792211 -0.588562
			-0.815635  0.281707 -0.505353
			-0.273767 -0.072992 -0.959022
			-0.410666  0.020883 -0.911547
			-0.020693 -0.120854 -0.992455
			 0.033400 -0.020244 -0.999237
			 0.033232 -0.036165 -0.998793
			-0.322685 -0.915611 -0.239856
			-0.031035  0.057379 -0.997870
		</DataArray>
	</PointData>
	<Points>
		<DataArray type="Float32" NumberOfComponents="3" format="ascii">
			 0.025949  0.000324  0.008044
			 0.028659  0.000882  0.006798
			 0.027299  0.001676  0.009766
			 0.021153 -0.001778  0.002769
			 0.026057 -0.000844  0.003361
			 0.023994  0.002434  0.011314
			 0.022176 -0.001334  0.006481
			 0.027209 -0.000228  0.005110
			 0.036915  0.001433  0.005615
			 0.026608  0.003541  0.011461
			 0.027640  0.005923  0.012691
			 0.020831 -0.001723  0.004879
			 0.024348 -0.001333  0.001630
			 0.012996 -0.001902  0.004248
			 0.017659 -0.002517  0.001451
			 0.020331 -0.002424  0.000785
			 0.027666 -0.000809  0.000459
			 0.025574  0.005498  0.012716
			 0.020812  0.001538  0.010802
			 0.021068  0.000931  0.010308
			 0.020897  0.000330  0.009385
			 0.020753 -0.000256  0.008528
			 0.020686 -0.001001  0.007608
			 0.019588 -0.001354  0.007522
			 0.038934  0.000037  0.000188
			 0.037824  0.000538 -0.003859
			 0.037782  0.000656  0.003142
			 0.043408  0.000622  0.003903
			 0.040883  0.000294  0.002180
			 0.025205  0.008271  0.013326
			 0.034237  0.011186  0.013175
			 0.028801  0.012527  0.013916
			 0.047571  0.013896  0.014595
			 0.024635  0.011144  0.013903
			 0.026667  0.011701  0.013955
			 0.016163 -0.001962  0.005831
			 0.018465 -0.001858  0.006229
			 0.026165 -0.001543 -0.001215
			 0.011124  0.000280  0.007121
			 0.010704 -0.001258  0.004689
			 0.009908 -0.001921  0.002437
			 0.014086 -0.003209  0.000437
			 0.011922 -0.002645  0.001390
			 0.015536 -0.004402 -0.001908
			 0.026743 -0.001994 -0.003975
			 0.028885 -0.001164 -0.002938
			 0.018696 -0.004417 -0.002594
			 0.024063 -0.002848 -0.003424
			 0.021519 -0.003302 -0.002494
			 0.022592  0.008455  0.012457
			 0.022469  0.006817  0.012385
			 0.021650  0.005910  0.012103
			 0.018979  0.005045  0.011583
			 0.018582  0.002875  0.010997
			 0.018964  0.003864  0.011324
			 0.019653  0.002511  0.011112
			 0.020682  0.002160  0.011165
			 0.019377  0.000882  0.010279
			 0.019104  0.001530  0.010703
			 0.019227  0.000227  0.009363
			 0.019846 -0.000596  0.008466
			 0.018971 -0.000958  0.008326
			 0.047292 -0.001620 -0.004520
			 0.046067 -0.001571 -0.002226
			 0.039865  0.000738 -0.007053
			 0.032518 -0.000242 -0.006683
			 0.028745 -0.001683 -0.005581
			 0.047178 -0.001142  0.000696
			 0.047039 -0.000301  0.003091
			 0.048731  0.000445  0.004476
			 0.054462  0.013725  0.014349
			 0.022093  0.012990  0.013416
			 0.033294  0.013907  0.013503
			 0.031067  0.013198  0.013666
			 0.031584  0.018976  0.014125
			 0.032324  0.016399  0.013860
			 0.048943  0.014330  0.014633
			 0.046523  0.015537  0.015041
			 0.038882  0.019122  0.014704
			 0.022801  0.016557  0.013723
			 0.015914  0.000399  0.009266
			 0.008512 -0.000612  0.004619
			 0.011497  0.002693  0.008447
			 0.010838  0.001329  0.007493
			 0.007999  0.000457  0.005015
			 0.007358 -0.001297  0.002312
			 0.007211 -0.003628 -0.000482
			 0.009557 -0.003177  0.001054
			 0.009632 -0.004397 -0.000039
			 0.011993 -0.004990 -0.001861
			 0.018857 -0.007632 -0.004200
			 0.010858 -0.005522 -0.002510
			 0.026187 -0.002574 -0.004881
			 0.025878 -0.003324 -0.005833
			 0.016173  0.010429  0.010950
			 0.019224  0.006627  0.011800
			 0.012978  0.008945  0.009938
			 0.017919  0.001878  0.010575
			 0.016205  0.001671  0.009926
			 0.047994 -0.001902 -0.002529
			 0.050012 -0.001583 -0.004181
			 0.046768 -0.001096 -0.007049
			 0.053579 -0.002086 -0.000069
			 0.040641  0.001983 -0.009056
			 0.039058  0.003419 -0.010272
			 0.033635  0.000668 -0.009030
			 0.027543 -0.003157 -0.007289
			 0.050640 -0.001107  0.002564
			 0.052162 -0.000379  0.003797
			 0.053691  0.000365  0.004944
			 0.057337  0.015027  0.015628
			 0.051363  0.015072  0.014770
			 0.057591  0.001231  0.005418
			 0.058872  0.001390  0.005388
			 0.063938  0.010442  0.014170
			 0.060609  0.002329  0.005772
			 0.064676  0.005772  0.008652
			 0.019574  0.013080  0.012364
			 0.032152  0.020733  0.013669
			 0.035801  0.021154  0.013776
			 0.050879  0.017602  0.014631
			 0.046006  0.017998  0.014781
			 0.038808  0.021357  0.013296
			 0.048111  0.022964  0.011667
			 0.045932  0.019991  0.013941
			 0.024802  0.021975  0.012345
			 0.022940  0.021229  0.012108
			 0.019682  0.022335  0.010835
			 0.014220  0.015356  0.010168
			 0.016688  0.013238  0.011060
			 0.014612  0.001889  0.009292
			 0.002803  0.001005  0.001234
			 0.008721  0.002284  0.006839
			 0.013250  0.002560  0.009095
			 0.005716  0.001405  0.004162
			 0.004533 -0.002658 -0.001042
			 0.004182 -0.002996 -0.002272
			 0.009999 -0.004921 -0.001237
			 0.006767 -0.005494 -0.004460
			 0.023271 -0.007322 -0.006871
			 0.023882 -0.006308 -0.006394
			 0.010203 -0.006530 -0.003894
			 0.012038 -0.008718 -0.005640
			 0.014432 -0.009758 -0.005914
			 0.019891 -0.008985 -0.006207
			 0.017887 -0.008806 -0.005371
			 0.026840 -0.003976 -0.007441
			 0.026135 -0.004942 -0.007620
			 0.016405  0.008632  0.011079
			 0.007934  0.009823  0.008057
			 0.009725  0.006308  0.008221
			 0.049533 -0.000984 -0.006282
			 0.047311  0.000465 -0.009082
			 0.059397 -0.000493  0.000718
			 0.058160 -0.000556  0.002413
			 0.057441 -0.000008  0.004034
			 0.054175 -0.000640  0.003336
			 0.051732  0.000051 -0.007551
			 0.047672  0.001985 -0.010582
			 0.041576  0.005188 -0.012098
			 0.033738  0.002643 -0.011743
			 0.035675  0.006754 -0.014061
			 0.039120  0.005356 -0.012569
			 0.030983  0.001815 -0.012673
			 0.027297 -0.003412 -0.009181
			 0.057276  0.016844  0.015890
			 0.061923  0.018436  0.015948
			 0.056843  0.018341  0.015341
			 0.058846  0.000183  0.004028
			 0.059952  0.000275  0.003925
			 0.067238  0.007768  0.012242
			 0.068308  0.012154  0.015525
			 0.061197  0.002315  0.002409
			 0.060453  0.000650  0.003882
			 0.060907  0.002322  0.000093
			 0.060297  0.002480 -0.003684
			 0.061108  0.005664 -0.004189
			 0.059959  0.009385 -0.007195
			 0.067997  0.022295  0.006895
			 0.062546  0.012616 -0.002647
			 0.038303  0.023551  0.011366
			 0.039457  0.025405  0.009923
			 0.025764  0.024905  0.011481
			 0.034398  0.026901  0.010809
			 0.038859  0.022699  0.012021
			 0.048100  0.019531  0.014120
			 0.053043  0.019635  0.014689
			 0.054647  0.019829  0.014873
			 0.050751  0.019527  0.014414
			 0.040667  0.024265  0.010461
			 0.061401  0.026443  0.010101
			 0.039091  0.031601  0.008395
			 0.047391  0.028011  0.004752
			 0.056187  0.024242  0.006119
			 0.023308  0.024107  0.011301
			 0.013891  0.018301  0.009633
			 0.016591  0.021822  0.009784
			 0.007333  0.013082  0.008446
			 0.011232  0.015581  0.009487
			 0.002508 -0.000082 -0.000370
			 0.002134  0.006596  0.005415
			-0.002395  0.002307 -0.004869
			 0.007237  0.006696  0.007251
			 0.002423 -0.001189 -0.001787
			 0.002661 -0.003475 -0.008393
			 0.006544 -0.005938 -0.006631
			 0.002444 -0.002890 -0.006367
			 0.009400 -0.007472 -0.005538
			 0.025055 -0.007032 -0.008750
			 0.020164 -0.010373 -0.008534
			 0.018575 -0.010262 -0.007205
			 0.021663 -0.010524 -0.010052
			 0.011496 -0.009249 -0.007586
			 0.018797 -0.011643 -0.011727
			 0.010435 -0.009297 -0.009461
			 0.026757 -0.004413 -0.009748
			 0.006806  0.010194  0.007868
			 0.051894  0.001184 -0.009745
			 0.060411  0.000519  0.002484
			 0.059998  0.000028  0.002465
			 0.057806  0.002085 -0.008685
			 0.060363  0.002035 -0.002193
			 0.060219  0.001427 -0.001059
			 0.047291  0.005867 -0.011857
			 0.048189  0.003271 -0.010983
			 0.052454  0.002815 -0.010468
			 0.042718  0.013582 -0.015239
			 0.041856  0.009116 -0.013850
			 0.039462  0.007489 -0.013623
			 0.041177  0.006530 -0.012967
			 0.033906  0.011943 -0.015446
			 0.036914  0.013427 -0.015412
			 0.039569  0.012600 -0.014997
			 0.028968  0.004894 -0.016370
			 0.030645  0.003854 -0.015185
			 0.027660 -0.002743 -0.011325
			 0.029200  0.002168 -0.015622
			 0.057718  0.020502  0.015095
			 0.064979  0.021828  0.013722
			 0.056253  0.020310  0.014963
			 0.066305  0.027685  0.006699
			 0.060806  0.001814  0.001153
			 0.060848  0.001436  0.002549
			 0.059999  0.003433 -0.006074
			 0.060907  0.004719 -0.005529
			 0.060711  0.005714 -0.007207
			 0.057714  0.008344 -0.008939
			 0.059708  0.013864 -0.008879
			 0.060921  0.014566 -0.007500
			 0.069257  0.026648  0.003259
			 0.069799  0.019407 -0.003148
			 0.063360  0.015768 -0.006857
			 0.064062  0.017055 -0.008051
			 0.061890  0.014745 -0.006631
			 0.036586  0.026658  0.010364
			 0.038082  0.027669  0.009573
			 0.031147  0.027364  0.010745
			 0.025891  0.027604  0.009624
			 0.027199  0.032821  0.005656
			 0.059917  0.026007  0.005011
			 0.034790  0.035368  0.005416
			 0.046424  0.032204 -0.005432
			 0.048972  0.028393 -0.009520
			 0.056256  0.025719  0.000019
			 0.013688  0.021042  0.008997
			 0.008667  0.015877  0.009014
			 0.002138  0.016395  0.007058
			-0.003443  0.010105  0.003191
			-0.003918  0.005104 -0.002324
			-0.001037 -0.001402 -0.010231
			-0.000516 -0.000750 -0.008619
			 0.000909 -0.001706 -0.007304
			-0.005403  0.005648 -0.008279
			-0.005036  0.005682 -0.010514
			-0.005695  0.005525 -0.006122
			-0.005593  0.005633 -0.007095
			 0.000426 -0.002368 -0.011095
			 0.003098 -0.003973 -0.009948
			 0.004466 -0.005060 -0.009465
			-0.000084 -0.001849 -0.009754
			 0.027110 -0.003834 -0.012124
			 0.024415 -0.008367 -0.011624
			 0.025193 -0.008015 -0.013983
			 0.022727 -0.010033 -0.012257
			 0.022067 -0.009433 -0.017498
			 0.014223 -0.009869 -0.017618
			 0.016495 -0.009467 -0.019842
			 0.018534 -0.009056 -0.020561
			 0.003367 -0.004423 -0.011849
			 0.001553 -0.001737 -0.016643
			 0.054734  0.002722 -0.010007
			 0.056348  0.003089 -0.009715
			 0.059804  0.004473 -0.007861
			 0.057380  0.004163 -0.009565
			 0.045014  0.009839 -0.013781
			 0.047011  0.008905 -0.013075
			 0.049171  0.007583 -0.012134
			 0.048720  0.004552 -0.011277
			 0.049435  0.005942 -0.011732
			 0.041868  0.016362 -0.016041
			 0.044257  0.014651 -0.015780
			 0.033685  0.024138 -0.017053
			 0.048633  0.014098 -0.015868
			 0.048181  0.010404 -0.013665
			 0.025528  0.022020 -0.017669
			 0.032104  0.010692 -0.015793
			 0.027143  0.005685 -0.017461
			 0.028742  0.007579 -0.016836
			 0.027758  0.003203 -0.016838
			 0.030462  0.009495 -0.016219
			 0.026878  0.001533 -0.017490
			 0.026861 -0.001729 -0.017612
			 0.062472  0.025437 -0.001022
			 0.058330  0.005697 -0.008800
			 0.053390  0.010925 -0.013713
			 0.062900  0.017365 -0.010547
			 0.060611  0.015242 -0.010462
			 0.059948  0.015284 -0.011413