<?xml version="1.0"?>
<VTKFile type="PolyData" version="0.1" byte_order="LittleEndian" compressor="vtkZLibDataCompressor">
	<PolyData>
		<Piece NumberOfPoints="310" NumberOfVerts="0" NumberOfLines="0" NumberOfStrips="0" NumberOfPolys="360">
		<PointData Normals="Normals">
		<DataArray type="Float32" Name="Normals" NumberOfComponents="3" format="ascii">
			 0.640390 -0.768044  0.002840
			 0.412586 -0.910615 -0.023502
			-0.762143 -0.640562  0.093906
			-0.765968 -0.642876  0.002101
			-0.233840 -0.972269  0.003374
			 0.542578  0.840000 -0.002837
			 0.303102  0.952566 -0.027329
			-0.761465 -0.641656 -0.091912
			 0.416781 -0.908531  0.029420
			 0.298687  0.954111  0.021410
			-0.691457 -0.635117  0.344258
			 0.169247 -0.985574  0.000170
			-0.537436 -0.588075  0.604426
			 0.060203  0.998154 -0.008021
			-0.833583  0.544470  0.093231
			-0.838263  0.545262 -0.002094
			-0.761503  0.550139  0.342725
			-0.834123  0.543299 -0.095216
			-0.350956  0.936386 -0.003365
			-0.602886  0.521643  0.603670
			-0.689165 -0.639011 -0.341637
			-0.763311  0.545996 -0.345318
			-0.534960 -0.591888 -0.602899
			 0.181562 -0.983326  0.010288
			 0.047691  0.998859 -0.002439
			-0.604880  0.517562 -0.605185
			-0.536446 -0.582764  0.610420
			-0.732305 -0.540859  0.413764
			-0.652083 -0.598106  0.465894
			 0.718247 -0.651839 -0.243368
			-0.340880 -0.663872  0.665639
			 0.665788  0.709215 -0.231820
			-0.603233  0.512419  0.611176
			-0.792263  0.447621  0.414674
			-0.716158  0.522901  0.462269
			-0.378992  0.624582  0.682834
			-0.536434 -0.582782 -0.610413
			-0.603233  0.512401 -0.611191
			-0.732307 -0.540861 -0.413759
			-0.647681 -0.606414 -0.461271
			-0.300000 -0.666997 -0.681994
			 0.746801 -0.622836  0.233160
			 0.633889  0.734580  0.242025
			-0.792267  0.447617 -0.414670
			-0.719546  0.514100 -0.466857
			-0.419190  0.616521 -0.666470
			 0.742228 -0.557713 -0.371556
			-0.246501 -0.710083  0.659560
			 0.430715  0.743317 -0.511824
			-0.603945  0.605293  0.518528
			-0.525950 -0.674949 -0.517513
			 0.517787 -0.684699  0.512917
			-0.331040  0.673955 -0.660452
			 0.669203  0.644125  0.370500
			 0.626234 -0.536560 -0.565628
			-0.210591 -0.788609  0.577708
			 0.265083  0.662469 -0.700618
			-0.629887  0.662466  0.405440
			-0.544845 -0.734681 -0.404213
			 0.343752 -0.624258  0.701524
			-0.304892  0.756341 -0.578782
			 0.556478  0.609463  0.564701
			-0.251175 -0.525578 -0.812822
			-0.374153 -0.682452  0.627908
			-0.275602  0.577292 -0.768621
			-0.489280  0.587067  0.644948
			-0.414315 -0.643018 -0.644105
			-0.203061 -0.605030  0.769873
			-0.454261  0.631004 -0.628873
			-0.313632  0.492668  0.811735
			-0.083079 -0.760122 -0.644448
			-0.098364 -0.867646 -0.487355
			-0.393521 -0.905914  0.156398
			-0.257412 -0.071146 -0.963679
			-0.139039 -0.670396 -0.728860
			-0.232578  0.166506 -0.958219
			-0.367729 -0.759028  0.537263
			-0.033284 -0.505892  0.861954
			-0.138968  0.456641  0.878730
			-0.204621  0.873483 -0.441766
			-0.117063  0.847328 -0.518008
			-0.542847  0.818858  0.186517
			-0.153619  0.760594 -0.630791
			-0.496910  0.662449  0.560572
			-0.439294 -0.879146 -0.184727
			-0.081983 -0.471364 -0.878120
			-0.412689 -0.718706 -0.559597
			-0.094885  0.496783 -0.862672
			-0.096352 -0.890875  0.443912
			-0.012559 -0.854129  0.519910
			-0.059458 -0.772293  0.632478
			-0.210540 -0.191970  0.958551
			-0.264288  0.040950  0.963574
			-0.500735  0.850996 -0.158339
			-0.457213  0.707881 -0.538388
			-0.175519  0.745701  0.642747
			-0.203779  0.850271  0.485298
			-0.220123  0.649976  0.727377
			 0.416063 -0.860212  0.294833
			-0.171330 -0.851003  0.496428
			 0.264497 -0.911863  0.313922
			-0.334271 -0.113883 -0.935571
			-0.212131 -0.692737 -0.689287
			-0.346567  0.008608 -0.937986
			 0.151522 -0.939685  0.306649
			-0.290015  0.654661 -0.698076
			-0.496182 -0.687518  0.530210
			-0.575916  0.621470  0.531128
			-0.271522  0.823478  0.498157
			 0.284008  0.903382  0.321311
			 0.176551  0.912309  0.369490
			 0.073074  0.923984  0.375384
			-0.169147 -0.851212 -0.496817
			-0.496177 -0.687526 -0.530205
			-0.575920  0.621461 -0.531133
			 0.392438 -0.862585 -0.319279
			 0.286995 -0.884625 -0.367522
			-0.207739 -0.683697  0.699574
			-0.343023 -0.048933  0.938052
			 0.185718 -0.908957 -0.373238
			-0.345835  0.074121  0.935363
			-0.295484  0.663067  0.687773
			-0.273642  0.823035 -0.497728
			 0.307773  0.903973 -0.296830
			 0.150878  0.936702 -0.315950
			 0.035366  0.950447 -0.308869
			 0.449132 -0.223286  0.865115
			 0.475867 -0.642498  0.600622
			 0.292588 -0.280039  0.914314
			-0.103677 -0.581573  0.806861
			-0.485792 -0.206377 -0.849361
			-0.338335 -0.738616 -0.583074
			-0.504551  0.099335 -0.857649
			-0.062213 -0.997767 -0.024286
			-0.420845  0.710525 -0.563954
			-0.269146  0.943925  0.191223
			-0.654274 -0.751591  0.083883
			-0.740549  0.666542  0.085487
			 0.377178  0.720993  0.581297
			 0.410742  0.292214  0.863656
			 0.262621  0.266649  0.927323
			-0.239830  0.386169  0.890705
			 0.462545 -0.670944 -0.579557
			 0.443547 -0.241815 -0.863013
			-0.654263 -0.751601 -0.083883
			-0.740556  0.666535 -0.085488
			 0.393901  0.694311 -0.602307
			 0.293451 -0.234395 -0.926793
			-0.190977 -0.413587 -0.890210
			-0.330820 -0.755335  0.565710
			-0.488757 -0.158085  0.857978
			-0.151845 -0.970166 -0.189001
			-0.507527  0.147615  0.848897
			-0.426259  0.693060  0.581353
			-0.183818  0.982718  0.021821
			 0.418560  0.274478 -0.865719
			 0.256171  0.311864 -0.914941
			-0.173910  0.563321 -0.807728
			 0.740835 -0.668676 -0.063529
			-0.620089 -0.761553  0.188483
			 0.654265  0.753730 -0.061884
			 0.557137 -0.813450  0.167024
			-0.626801 -0.778194  0.039173
			-0.768411  0.589995  0.247892
			-0.351977 -0.214655 -0.911063
			-0.381967  0.201161 -0.902018
			-0.151853 -0.182692 -0.971372
			-0.245292 -0.780532 -0.574980
			 0.036879 -0.998103  0.049292
			 0.169025 -0.985428 -0.019033
			 0.725665 -0.511798  0.459862
			-0.372800  0.749115 -0.547583
			-0.178607  0.193090 -0.964788
			-0.118686  0.991747  0.048490
			-0.024817  0.999388 -0.024653
			 0.327386  0.834666  0.442890
			 0.626023  0.634574  0.453223
			-0.707853  0.680332  0.189983
			-0.620097 -0.761545 -0.188489
			 0.740852 -0.668657  0.063527
			 0.654245  0.753747  0.061881
			-0.707846  0.680339 -0.189982
			-0.691345 -0.679118 -0.246659
			 0.426826 -0.789614 -0.440827
			-0.716655  0.696226 -0.040934
			-0.354587 -0.244363  0.902527
			-0.278382 -0.787825  0.549395
			-0.153688 -0.211824  0.965148
			 0.003564 -0.998933 -0.046047
			 0.097532 -0.994864  0.027079
			-0.375753  0.171993  0.910620
			 0.698754 -0.554866 -0.451515
			-0.173224  0.164390  0.971066
			-0.339051  0.745980  0.573200
			-0.085491  0.994993 -0.051772
			 0.047333  0.998741  0.016611
			 0.453854  0.874851 -0.169267
			 0.657998  0.595054 -0.461464
			 0.538623 -0.714572 -0.446399
			-0.587684 -0.746614  0.311760
			 0.447755  0.775581 -0.444961
			-0.673801  0.669229  0.313249
			 0.703789 -0.645695  0.296241
			 0.620111  0.725660  0.298127
			 0.555670 -0.592653  0.583089
			-0.715329 -0.698628  0.014951
			-0.850172  0.512251 -0.121682
			 0.395494  0.751052  0.528683
			 0.033935 -0.689058 -0.723911
			 0.016135  0.584881 -0.810959
			 0.097668 -0.978905 -0.179462
			 0.361499 -0.931912 -0.029289
			 0.815658 -0.477687  0.326369
			 0.776567 -0.582146  0.240935
			 0.738614  0.592497  0.321553
			-0.034895  0.894976 -0.444747
			 0.274288  0.917876 -0.286828
			 0.794707  0.594578  0.122140
			-0.587714 -0.746586 -0.311772
			 0.538599 -0.714595  0.446391
			-0.673821  0.669208 -0.313251
			 0.447713  0.775606  0.444960
			-0.781871 -0.611178  0.123047
			 0.484020 -0.698738 -0.526772
			 0.703790 -0.645694 -0.296241
			-0.794797  0.606657 -0.016276
			 0.620115  0.725656 -0.298128
			 0.479391  0.654407 -0.584753
			 0.087215 -0.577108  0.811997
			 0.074576 -0.891624  0.446593
			 0.384031 -0.877034  0.288672
			-0.050588  0.689542  0.722477
			 0.805168 -0.499260 -0.320068
			 0.860916 -0.494166 -0.120925
			 0.751646  0.572337 -0.327809
			-0.022760  0.983935  0.177068
			 0.245003  0.969146  0.027022
			 0.700069  0.671628 -0.242527
			-0.095625 -0.907597 -0.408807
			-0.586504 -0.746679  0.313821
			-0.178786  0.900447 -0.396522
			-0.672642  0.669410  0.315346
			 0.773824 -0.431471  0.463713
			-0.361910 -0.778024 -0.513517
			 0.574921  0.759676  0.303905
			-0.617074  0.512359 -0.597251
			-0.107381 -0.819422 -0.563043
			 0.772307 -0.501023  0.390535
			-0.169169  0.821532 -0.544488
			 0.719652  0.557230  0.414241
			-0.586508 -0.746676 -0.313819
			-0.067387 -0.914556  0.398806
			-0.672681  0.669365 -0.315359
			-0.205965  0.890128  0.406511
			-0.550300 -0.582056  0.598649
			 0.662959 -0.684950 -0.302208
			-0.453905  0.729390  0.511821
			 0.715847  0.521019 -0.464869
			 0.782143 -0.466703 -0.412845
			-0.067769 -0.834619  0.546643
			-0.206681  0.801642  0.560940
			 0.705681  0.590215 -0.391996
			-0.475293 -0.742354  0.472236
			-0.455471 -0.660474  0.596926
			-0.120648 -0.739922  0.661785
			 0.438453 -0.817046  0.374426
			-0.074913 -0.568076 -0.819559
			 0.850020 -0.510402  0.130218
			-0.223783  0.563821 -0.795001
			-0.561991  0.678240  0.473452
			-0.532202  0.599245  0.598051
			-0.209843  0.718405  0.663220
			 0.383968  0.843594  0.375391
			 0.688266  0.724667  0.033892
			-0.537935 -0.835425 -0.112652
			 0.800754 -0.567757  0.190907
			-0.684026  0.679655 -0.264908
			 0.747915  0.659146  0.078425
			-0.475290 -0.742358 -0.472233
			-0.561994  0.678236 -0.473454
			-0.455472 -0.660470 -0.596929
			-0.120646 -0.739923 -0.661784
			 0.484102 -0.791448 -0.373170
			 0.771109 -0.635886 -0.032258
			-0.153307 -0.585189  0.796273
			-0.143544  0.556412  0.818414
			-0.532199  0.599251 -0.598049
			-0.209842  0.718404 -0.663221
			 0.335605  0.863399 -0.376711
			 0.782068  0.609118 -0.131700
			 0.822367 -0.563723 -0.076996
			-0.596538 -0.756936  0.266814
			 0.725885  0.660336 -0.192477
			-0.635362  0.764249  0.110630
			 0.655615 -0.728984 -0.196854
			-0.620540 -0.782852 -0.045532
			-0.756089  0.627777 -0.185001
			 0.550232  0.778343 -0.302368
			-0.674519 -0.714277  0.186633
			 0.640816 -0.705063  0.303713
			 0.562008  0.803746  0.195294
			-0.710815  0.702012  0.043831
			-0.657460 -0.738232 -0.150866
			-0.675558 -0.737307 -0.000436
			 0.777313 -0.629113 -0.000425
			 0.695037  0.718974  0.000423
			-0.738770  0.657189 -0.149402
			-0.759672  0.650307  0.000436
			-0.653690 -0.741504  0.151201
			-0.742120  0.653479  0.149076
		</DataArray>
	</PointData>
	<Points>
		<DataArray type="Float32" NumberOfComponents="3" format="ascii">
			-0.029548 -0.006703  0.000000
			-0.029243 -0.006689  0.003428
			-0.042208 -0.003531  0.003608
			-0.042450 -0.003542  0.000000
			-0.029236 -0.006684  0.000000
			-0.030119  0.002765  0.000000
			-0.029814  0.002779  0.003435
			-0.042208 -0.003531 -0.003608
			-0.029243 -0.006689 -0.003428
			-0.029814  0.002779 -0.003435
			-0.041957 -0.003516  0.005137
			-0.028800 -0.006662  0.004872
			-0.040181 -0.003408  0.007223
			-0.029371  0.002803  0.004878
			-0.042303 -0.001943  0.003609
			-0.042546 -0.001954  0.000000
			-0.042053 -0.001931  0.005138
			-0.042303 -0.001943 -0.003609
			-0.029807  0.002784  0.000000
			-0.040277 -0.001825  0.007225
			-0.041957 -0.003516 -0.005137
			-0.042053 -0.001931 -0.005138
			-0.040181 -0.003408 -0.007223
			-0.028800 -0.006662 -0.004872
			-0.029371  0.002803 -0.004878
			-0.040277 -0.001825 -0.007225
			-0.037778 -0.003262  0.009073
			-0.035327 -0.003114  0.011871
			-0.033269 -0.005622  0.014030
			-0.026163 -0.005181  0.008574
			-0.030360 -0.003473  0.017833
			-0.026575  0.001647  0.008579
			-0.037873 -0.001681  0.009074
			-0.035422 -0.001535  0.011872
			-0.033681  0.001202  0.014034
			-0.030535 -0.000584  0.017835
			-0.037778 -0.003262 -0.009073
			-0.037873 -0.001681 -0.009074
			-0.035327 -0.003114 -0.011871
			-0.033269 -0.005622 -0.014030
			-0.030360 -0.003473 -0.017833
			-0.026163 -0.005181 -0.008574
			-0.026575  0.001647 -0.008579
			-0.035422 -0.001535 -0.011872
			-0.033681  0.001202 -0.014034
			-0.030535 -0.000584 -0.017835
			-0.024338 -0.004413  0.010978
			-0.028550 -0.002703  0.019215
			-0.024671  0.001103  0.010982
			-0.028645 -0.001130  0.019216
			-0.028550 -0.002703 -0.019215
			-0.024338 -0.004413 -0.010978
			-0.028645 -0.001130 -0.019216
			-0.024671  0.001103 -0.010982
			-0.022574 -0.002990  0.012750
			-0.025054 -0.005124  0.023067
			-0.022748 -0.000097  0.012752
			-0.025465  0.001693  0.023072
			-0.025054 -0.005124 -0.023067
			-0.022574 -0.002990 -0.012750
			-0.025465  0.001693 -0.023072
			-0.022748 -0.000097 -0.012752
			-0.019203 -0.002785  0.014584
			-0.022737 -0.004983  0.024502
			-0.019377  0.000107  0.014586
			-0.023148  0.001833  0.024506
			-0.022737 -0.004983 -0.024502
			-0.019203 -0.002785 -0.014584
			-0.023148  0.001833 -0.024506
			-0.019377  0.000107 -0.014586
			-0.012575 -0.006852  0.015696
			-0.015437 -0.009493  0.018507
			-0.016436 -0.010123  0.020622
			-0.013261 -0.001760  0.015081
			-0.011109 -0.006477  0.014636
			-0.013356 -0.000183  0.015082
			-0.016368 -0.001958  0.024032
			-0.020604 -0.002220  0.025572
			-0.020699 -0.000651  0.025573
			-0.016445  0.007218  0.018518
			-0.013287  0.004954  0.015704
			-0.017511  0.007715  0.020633
			-0.011787  0.004764  0.014643
			-0.016462 -0.000389  0.024033
			-0.016436 -0.010123 -0.020622
			-0.020604 -0.002220 -0.025572
			-0.016368 -0.001958 -0.024032
			-0.020699 -0.000651 -0.025573
			-0.015437 -0.009493 -0.018507
			-0.012575 -0.006852 -0.015696
			-0.011109 -0.006477 -0.014636
			-0.013261 -0.001760 -0.015081
			-0.013356 -0.000183 -0.015082
			-0.017511  0.007715 -0.020633
			-0.016462 -0.000389 -0.024033
			-0.013287  0.004954 -0.015704
			-0.016445  0.007218 -0.018518
			-0.011787  0.004764 -0.014643
			-0.009427 -0.008716  0.023364
			-0.012975 -0.009603  0.023401
			-0.005305 -0.007114  0.022021
			-0.009090 -0.001502  0.013710
			-0.007955 -0.005067  0.013784
			-0.009185  0.000075  0.013711
			-0.002622 -0.006578  0.020638
			-0.008487  0.003752  0.013790
			-0.016241 -0.001952  0.025834
			-0.016335 -0.000384  0.025835
			-0.014013  0.007617  0.023412
			-0.010385  0.007172  0.023375
			-0.006102  0.006089  0.022030
			-0.003374  0.005889  0.020647
			-0.012975 -0.009603 -0.023401
			-0.016241 -0.001952 -0.025834
			-0.016335 -0.000384 -0.025835
			-0.009427 -0.008716 -0.023364
			-0.005305 -0.007114 -0.022021
			-0.007955 -0.005067 -0.013784
			-0.009090 -0.001502 -0.013710
			-0.002622 -0.006578 -0.020638
			-0.009185  0.000075 -0.013711
			-0.008487  0.003752 -0.013790
			-0.014013  0.007617 -0.023412
			-0.010385  0.007172 -0.023375
			-0.006102  0.006089 -0.022030
			-0.003374  0.005889 -0.020647
			-0.008518 -0.001478  0.026664
			-0.010032 -0.001572  0.027745
			-0.006667 -0.001363  0.026074
			-0.001591 -0.001050  0.024639
			-0.004118 -0.001195  0.011057
			-0.001531 -0.005040  0.011482
			-0.004213  0.000385  0.011058
			 0.000183 -0.006874  0.018707
			-0.002108  0.004518  0.011488
			-0.000625  0.006531  0.018716
			-0.015653 -0.001917  0.028079
			-0.015747 -0.000351  0.028080
			-0.010127 -0.000005  0.027746
			-0.008612  0.000090  0.026665
			-0.006762  0.000204  0.026075
			-0.001685  0.000519  0.024640
			-0.010032 -0.001572 -0.027745
			-0.008518 -0.001478 -0.026664
			-0.015653 -0.001917 -0.028079
			-0.015747 -0.000351 -0.028080
			-0.010127 -0.000005 -0.027746
			-0.006667 -0.001363 -0.026074
			-0.001591 -0.001050 -0.024639
			-0.001531 -0.005040 -0.011482
			-0.004118 -0.001195 -0.011057
			 0.000183 -0.006874 -0.018707
			-0.004213  0.000385 -0.011058
			-0.002108  0.004518 -0.011488
			-0.000625  0.006531 -0.018716
			-0.008612  0.000090 -0.026665
			-0.006762  0.000204 -0.026075
			-0.001685  0.000519 -0.024640
			-0.010148 -0.001580  0.029107
			-0.015697 -0.001922  0.030853
			-0.010242 -0.000014  0.029108
			 0.004360 -0.004769  0.023048
			 0.000100 -0.004575  0.026251
			-0.000430  0.004221  0.026256
			-0.002003 -0.001064  0.009496
			-0.002098  0.000518  0.009497
			 0.000337 -0.000920  0.009470
			 0.001347 -0.005374  0.010936
			 0.002531 -0.006919  0.016962
			 0.004622 -0.007443  0.015477
			 0.006536 -0.005132  0.019560
			 0.000709  0.005203  0.010943
			 0.000242  0.000661  0.009471
			 0.001700  0.006867  0.016971
			 0.003713  0.007647  0.015487
			 0.003774  0.004943  0.023055
			 0.005890  0.005578  0.019567
			-0.015792 -0.000358  0.030854
			-0.015697 -0.001922 -0.030853
			-0.010148 -0.001580 -0.029107
			-0.010242 -0.000014 -0.029108
			-0.015792 -0.000358 -0.030854
			 0.000100 -0.004575 -0.026251
			 0.004360 -0.004769 -0.023048
			-0.000430  0.004221 -0.026256
			-0.002003 -0.001064 -0.009496
			 0.001347 -0.005374 -0.010936
			 0.000337 -0.000920 -0.009470
			 0.002531 -0.006919 -0.016962
			 0.004622 -0.007443 -0.015477
			-0.002098  0.000518 -0.009497
			 0.006536 -0.005132 -0.019560
			 0.000242  0.000661 -0.009471
			 0.000709  0.005203 -0.010943
			 0.001700  0.006867 -0.016971
			 0.003713  0.007647 -0.015487
			 0.003774  0.004943 -0.023055
			 0.005890  0.005578 -0.019567
			-0.009765 -0.001557  0.030522
			-0.013537 -0.001792  0.034233
			-0.009859  0.000007  0.030523
			-0.013631 -0.000231  0.034234
			 0.003383 -0.004238  0.027203
			 0.002870  0.004286  0.027208
			 0.002450 -0.003948  0.029638
			-0.000262 -0.004308  0.028281
			-0.000757  0.003907  0.028286
			 0.001978  0.003878  0.029644
			 0.007218 -0.006430  0.009189
			 0.006410  0.006974  0.009198
			 0.003906 -0.006531  0.011914
			 0.005122 -0.006966  0.013811
			 0.007455 -0.005337  0.017729
			 0.008194 -0.005059  0.015358
			 0.006777  0.005898  0.017736
			 0.003110  0.006663  0.011923
			 0.004266  0.007238  0.013821
			 0.007544  0.005718  0.015365
			-0.013537 -0.001792 -0.034233
			-0.009765 -0.001557 -0.030522
			-0.013631 -0.000231 -0.034234
			-0.009859  0.000007 -0.030523
			-0.000262 -0.004308 -0.028281
			 0.002450 -0.003948 -0.029638
			 0.003383 -0.004238 -0.027203
			-0.000757  0.003907 -0.028286
			 0.002870  0.004286 -0.027208
			 0.001978  0.003878 -0.029644
			 0.007218 -0.006430 -0.009189
			 0.003906 -0.006531 -0.011914
			 0.005122 -0.006966 -0.013811
			 0.006410  0.006974 -0.009198
			 0.007455 -0.005337 -0.017729
			 0.008194 -0.005059 -0.015358
			 0.006777  0.005898 -0.017736
			 0.003110  0.006663 -0.011923
			 0.004266  0.007238 -0.013821
			 0.007544  0.005718 -0.015365
			-0.006974 -0.001387  0.031596
			-0.012475 -0.001730  0.037165
			-0.007069  0.000177  0.031597
			-0.012569 -0.000171  0.037166
			-0.000604 -0.000996  0.033119
			-0.001267 -0.001034  0.029753
			-0.000698  0.000566  0.033120
			-0.001362  0.000531  0.029754
			 0.008607 -0.004436  0.008816
			 0.011078 -0.002971  0.011227
			 0.008028  0.005166  0.008822
			 0.010657  0.004008  0.011232
			-0.012475 -0.001730 -0.037165
			-0.006974 -0.001387 -0.031596
			-0.012569 -0.000171 -0.037166
			-0.007069  0.000177 -0.031597
			-0.001267 -0.001034 -0.029753
			-0.000604 -0.000996 -0.033119
			-0.001362  0.000531 -0.029754
			-0.000698  0.000566 -0.033120
			 0.011078 -0.002971 -0.011227
			 0.008607 -0.004436 -0.008816
			 0.008028  0.005166 -0.008822
			 0.010657  0.004008 -0.011232
			-0.010953 -0.001638  0.039510
			-0.009229 -0.001533  0.040882
			-0.006515 -0.003885  0.040955
			-0.002790 -0.003277  0.039636
			-0.003846 -0.001194  0.031042
			-0.001588 -0.003079  0.035962
			-0.003940  0.000370  0.031044
			-0.011047 -0.000082  0.039511
			-0.009323  0.000022  0.040883
			-0.006912  0.002689  0.040959
			-0.003141  0.002545  0.039640
			-0.001925  0.002504  0.035965
			 0.009389 -0.004518  0.007193
			 0.014532 -0.002754  0.005930
			 0.008794  0.005347  0.007199
			 0.014111  0.004229  0.005935
			-0.010953 -0.001638 -0.039510
			-0.011047 -0.000082 -0.039511
			-0.009229 -0.001533 -0.040882
			-0.006515 -0.003885 -0.040955
			-0.002790 -0.003277 -0.039636
			-0.001588 -0.003079 -0.035962
			-0.003846 -0.001194 -0.031042
			-0.003940  0.000370 -0.031044
			-0.009323  0.000022 -0.040883
			-0.006912  0.002689 -0.040959
			-0.003141  0.002545 -0.039640
			-0.001925  0.002504 -0.035965
			 0.014532 -0.002754 -0.005930
			 0.009389 -0.004518 -0.007193
			 0.014111  0.004229 -0.005935
			 0.008794  0.005347 -0.007199
			 0.014925 -0.001412  0.001798
			 0.008899 -0.003232  0.005583
			 0.008462  0.004014  0.005588
			 0.014662  0.002955  0.001801
			 0.008899 -0.003232 -0.005583
			 0.014925 -0.001412 -0.001798
			 0.014662  0.002955 -0.001801
			 0.008462  0.004014 -0.005588
			 0.008398 -0.002603  0.003242
			 0.008260 -0.001294  0.000000
			 0.014990 -0.000749  0.000000
			 0.014806  0.002308  0.000000
			 0.008040  0.003334  0.003246
			 0.008060  0.002025  0.000000
			 0.008398 -0.002603 -0.003242
			 0.008040  0.003334 -0.003246
		</DataArray>
	</Points>
			<Polys>
				<DataArray type="Int32" Name="connectivity" format="ascii">
					0 1 2 3 4 
					0 5 6 1 
					4 3 7 8 0 
					8 9 5 0 
					1 10 2 
					11 12 10 1 
					1 6 13 11 
					2 14 15 3 
					10 16 14 2 
					3 15 17 7 
					18 15 14 6 5 
					5 9 17 15 18 
					14 16 6 
					6 16 19 13 
					7 20 8 
					7 17 21 20 
					8 20 22 23 
					23 24 9 8 
					9 21 17 
					24 25 21 9 
					12 19 16 10 
					26 12 11 
					27 26 11 
					28 27 11 
					29 30 28 11 
					11 13 31 29 
					26 32 19 12 
					13 19 32 
					13 32 33 
					13 33 34 
					13 34 35 31 
					20 21 25 22 
					23 22 36 
					22 25 37 36 
					23 36 38 
					23 38 39 
					23 39 40 41 
					41 42 24 23 
					37 25 24 
					43 37 24 
					44 43 24 
					42 45 44 24 
					27 33 32 26 
					28 34 33 27 
					30 35 34 28 
					29 46 47 30 
					29 31 48 46 
					47 49 35 30 
					35 49 48 31 
					36 37 43 38 
					38 43 44 39 
					39 44 45 40 
					40 50 51 41 
					40 45 52 50 
					51 53 42 41 
					42 53 52 45 
					46 54 55 47 
					46 48 56 54 
					55 57 49 47 
					49 57 56 48 
					50 58 59 51 
					50 52 60 58 
					59 61 53 51 
					53 61 60 52 
					62 63 55 54 
					54 56 64 62 
					63 65 57 55 
					56 57 65 64 
					59 58 66 67 
					58 60 68 66 
					67 69 61 59 
					69 68 60 61 
					70 71 62 
					71 72 62 
					72 63 62 
					73 74 70 62 
					73 62 64 75 
					76 77 63 72 
					77 78 65 63 
					64 79 80 
					64 81 79 
					64 65 81 
					64 80 82 75 
					81 65 78 83 
					67 66 84 
					84 66 85 86 
					66 68 87 85 
					67 88 89 
					67 84 88 
					67 89 90 91 
					92 69 67 91 
					93 68 69 
					94 87 68 93 
					95 96 69 
					96 93 69 
					92 97 95 69 
					70 98 99 71 
					74 100 98 70 
					99 72 71 
					99 76 72 
					101 102 74 73 
					101 73 75 103 
					102 104 100 74 
					75 82 105 103 
					106 77 76 
					99 106 76 
					106 107 78 77 
					83 78 107 
					79 81 108 
					79 108 109 80 
					80 109 110 82 
					81 83 108 
					82 110 111 105 
					83 107 108 
					88 84 112 
					84 86 112 
					86 85 113 
					85 87 114 113 
					86 113 112 
					114 87 94 
					88 112 115 89 
					89 115 116 90 
					91 90 117 118 
					90 116 119 117 
					120 92 91 118 
					120 121 97 92 
					122 93 96 
					122 94 93 
					122 114 94 
					95 123 122 96 
					97 124 123 95 
					121 125 124 97 
					98 126 127 99 
					100 128 126 98 
					127 106 99 
					104 129 128 100 
					130 131 102 101 
					101 103 132 130 
					131 133 104 102 
					103 105 134 132 
					133 129 104 
					105 111 135 134 
					136 106 127 
					136 137 107 106 
					108 107 138 
					138 107 137 
					108 138 139 109 
					109 139 140 110 
					110 140 141 111 
					111 141 135 
					112 113 142 
					112 142 143 115 
					142 113 144 
					113 114 145 144 
					146 114 122 
					145 114 146 
					115 143 147 116 
					116 147 148 119 
					118 117 149 150 
					117 119 151 149 
					150 152 120 118 
					119 148 151 
					152 153 121 120 
					153 154 125 121 
					123 155 146 122 
					124 156 155 123 
					125 157 156 124 
					154 157 125 
					128 140 139 126 
					126 139 138 127 
					158 159 136 127 
					127 138 160 158 
					129 141 140 128 
					161 162 129 133 
					162 163 141 129 
					164 131 130 
					130 132 165 164 
					166 167 131 164 
					168 133 131 
					167 169 168 131 
					132 134 165 
					168 170 161 133 
					165 134 171 172 
					134 135 173 
					134 173 174 171 
					135 141 163 175 
					135 175 176 173 
					159 177 137 136 
					138 137 177 160 
					142 144 178 179 
					142 146 155 143 
					179 180 146 142 
					143 155 156 147 
					144 145 181 178 
					180 181 145 146 
					147 156 157 148 
					151 148 182 183 
					148 157 184 182 
					150 149 185 
					185 149 186 187 
					149 151 188 
					149 188 189 186 
					185 190 152 150 
					151 183 191 188 
					190 153 152 
					192 193 153 190 
					194 154 153 
					193 195 194 153 
					196 184 157 154 
					194 197 196 154 
					198 199 159 158 
					158 160 200 198 
					199 201 177 159 
					160 177 201 200 
					161 202 162 
					161 175 203 202 
					170 176 175 161 
					162 202 204 205 
					205 206 163 162 
					206 207 203 163 
					163 203 175 
					164 165 172 166 
					208 167 166 
					166 172 209 208 
					208 210 167 
					210 211 169 167 
					169 212 170 168 
					211 213 212 169 
					212 214 176 170 
					172 171 209 
					171 215 209 
					171 174 216 215 
					173 176 214 174 
					174 214 217 216 
					179 178 218 219 
					178 181 220 218 
					219 221 180 179 
					221 220 181 180 
					222 223 224 182 
					182 224 183 
					182 184 225 222 
					224 226 196 183 
					183 196 197 191 
					184 226 227 225 
					196 226 184 
					187 192 190 185 
					187 186 228 
					186 229 228 
					186 189 230 229 
					228 231 192 187 
					188 191 232 189 
					189 232 233 230 
					191 197 234 232 
					231 193 192 
					231 235 193 
					235 236 195 193 
					195 234 197 194 
					236 237 234 195 
					238 239 199 198 
					198 200 240 238 
					239 241 201 199 
					200 201 241 240 
					202 203 207 204 
					205 204 242 243 
					204 207 244 242 
					243 245 206 205 
					245 244 207 206 
					208 213 211 210 
					246 247 213 208 
					208 209 248 246 
					215 216 217 209 
					209 217 249 248 
					213 217 214 212 
					247 249 217 213 
					219 218 250 251 
					218 220 252 250 
					251 253 221 219 
					253 252 220 221 
					254 255 223 222 
					222 225 256 254 
					255 257 227 223 
					223 227 226 224 
					225 227 257 256 
					229 230 233 228 
					228 233 258 259 
					259 260 231 228 
					231 237 236 235 
					260 261 237 231 
					232 234 237 233 
					233 237 261 258 
					262 239 238 
					263 262 238 
					264 263 238 
					265 264 238 
					266 267 265 238 
					238 240 268 266 
					262 269 241 239 
					240 241 269 
					240 269 270 
					240 270 271 
					240 271 272 
					240 272 273 268 
					243 242 267 266 
					242 244 273 267 
					266 268 245 243 
					268 273 244 245 
					274 275 247 246 
					246 248 276 274 
					275 277 249 247 
					248 249 277 276 
					251 250 278 
					250 252 279 278 
					251 278 280 
					251 280 281 
					251 281 282 
					251 282 283 284 
					284 285 253 251 
					279 252 253 
					286 279 253 
					287 286 253 
					288 287 253 
					285 289 288 253 
					284 283 255 254 
					254 256 285 284 
					283 289 257 255 
					256 257 289 285 
					259 258 290 291 
					258 261 292 290 
					291 293 260 259 
					293 292 261 260 
					263 270 269 262 
					264 271 270 263 
					265 272 271 264 
					267 273 272 265 
					294 275 274 295 
					274 276 296 295 
					294 297 277 275 
					296 276 277 297 
					278 279 286 280 
					280 286 287 281 
					281 287 288 282 
					282 288 289 283 
					298 291 290 299 
					290 292 300 299 
					298 301 293 291 
					300 292 293 301 
					302 294 295 
					303 304 294 302 
					304 305 297 294 
					295 296 306 302 
					296 297 306 
					306 297 305 307 
					298 299 308 
					308 309 301 298 
					308 299 304 303 
					299 300 305 304 
					309 300 301 
					307 305 300 309 
					302 306 307 303 
					303 307 309 308 
				</DataArray>
				<DataArray type="Int32" Name="offsets" format="ascii">