<?xml version="1.0"?>
<VTKFile type="PolyData" version="0.1" byte_order="LittleEndian" compressor="vtkZLibDataCompressor">
	<PolyData>
		<Piece NumberOfPoints="264" NumberOfVerts="0" NumberOfLines="0" NumberOfStrips="0" NumberOfPolys="524">
		<PointData Normals="Normals">
		<DataArray type="Float32" Name="Normals" NumberOfComponents="3" format="ascii">
			-0.960379 -0.239513  0.142497
			-0.755398  0.654559  0.030436
			-0.989853 -0.117519 -0.079884
			-0.663696 -0.740265 -0.107311
			-0.224606 -0.969014 -0.102780
			-0.380069 -0.923545  0.051104
			-0.947798 -0.117593  0.296396
			-0.510760  0.814297  0.275761
			-0.557502  0.829997  0.017210
			-0.455763  0.890026 -0.011563
			-0.425581  0.904856  0.010804
			-0.509997  0.858993 -0.045098
			-0.910020  0.333625 -0.246086
			 0.079950  0.996001 -0.039868
			-0.721870 -0.577857 -0.380769
			 0.282005 -0.945774 -0.161197
			 0.708979 -0.701137 -0.075864
			 0.709918 -0.667590 -0.224367
			-0.810589 -0.497736  0.308553
			 0.013704 -0.994074 -0.107838
			 0.218387 -0.965762 -0.140039
			-0.917828  0.180379  0.353631
			-0.093663  0.908860  0.406448
			 0.438043  0.898954 -0.001060
			 0.085543  0.995731  0.034663
			 0.659744  0.740608 -0.127425
			-0.543516  0.838806  0.031551
			-0.398176  0.917076  0.020684
			-0.475347  0.879778  0.005972
			-0.373797  0.927489 -0.006265
			-0.355971  0.934378 -0.014920
			-0.428519  0.899211 -0.088261
			-0.241399  0.969952  0.030326
			-0.842176  0.133375 -0.522447
			-0.277357  0.936688 -0.213750
			-0.622582  0.750656 -0.221150
			-0.811111  0.553384 -0.189382
			 0.984109  0.177448 -0.006407
			 0.256014  0.966436  0.021421
			-0.671278 -0.331850 -0.662768
			-0.293101 -0.831365 -0.472149
			 0.785081 -0.618457  0.034035
			 0.892418 -0.450879  0.017243
			-0.014880 -0.987908 -0.154327
			 0.423935 -0.902226  0.079171
			 0.486329 -0.831766 -0.267674
			 0.886988 -0.339263 -0.313295
			-0.504393 -0.860536  0.071173
			 0.265389 -0.935346 -0.233872
			-0.013769 -0.993810 -0.110237
			-0.132528 -0.986299 -0.098237
			 0.342587 -0.883931 -0.318275
			 0.196557 -0.960697 -0.196029
			 0.371539 -0.899178 -0.231168
			-0.996050 -0.086520  0.019947
			 0.053879  0.998333  0.020676
			-0.732309  0.662184 -0.158857
			 0.477032  0.876601 -0.063334
			 0.502946  0.864101 -0.019336
			 0.504797  0.860705 -0.066088
			 0.473155  0.879247 -0.055226
			 0.481142  0.869210 -0.113916
			 0.214252  0.976085 -0.036814
			 0.136238  0.989729 -0.043300
			 0.572169  0.791126 -0.216201
			 0.236371  0.970289 -0.051653
			-0.500459  0.856099  0.128975
			-0.410384  0.909060  0.072072
			-0.286326  0.951216  0.114917
			-0.231441  0.971402  0.053047
			-0.940033  0.249466 -0.232603
			-0.804986 -0.263522 -0.531558
			-0.188685  0.952959 -0.237207
			 0.084054  0.937334 -0.338143
			-0.497781  0.842885 -0.204352
			-0.348918  0.907969 -0.232052
			-0.027270  0.949125 -0.313718
			-0.954026  0.299706  0.003242
			-0.353188  0.918971 -0.175359
			-0.872361  0.410336  0.265726
			-0.973730  0.216423  0.070796
			 0.281853  0.957383  0.063059
			 0.843109  0.068367  0.533379
			 0.844824  0.449400  0.290364
			 0.766695 -0.290614  0.572470
			-0.535449 -0.533374 -0.654833
			-0.471558 -0.842613 -0.260070
			 0.663220 -0.706750  0.246260
			 0.802561 -0.556325  0.215404
			-0.036680 -0.947268  0.318336
			-0.258216 -0.884256  0.389121
			-0.290884 -0.956205  0.032529
			 0.012673 -0.757555  0.652648
			 0.260191 -0.691433  0.673960
			 0.443873 -0.779369 -0.442224
			 0.972450 -0.069060 -0.222645
			-0.009272 -0.999863 -0.013686
			-0.417334 -0.908749 -0.002773
			-0.093195 -0.987522 -0.126944
			 0.061050 -0.982701 -0.174848
			 0.340264 -0.657802 -0.671951
			 0.245826 -0.848876 -0.467952
			 0.335895 -0.919066 -0.206137
			 0.265817 -0.859530 -0.436520
			 0.186192 -0.962489 -0.197353
			-0.710784 -0.695081 -0.107926
			-0.997977 -0.017007 -0.061255
			-0.655006 -0.753672 -0.054265
			-0.628958  0.768052  0.120450
			-0.506749  0.858676 -0.076689
			-0.549992  0.804360 -0.224752
			 0.346773  0.929859 -0.122925
			 0.455117  0.885957 -0.089159
			 0.110362  0.965181 -0.237160
			-0.083085  0.968051 -0.236587
			 0.333296  0.930283 -0.153254
			 0.476322  0.879265 -0.003205
			 0.513689  0.857533 -0.027571
			 0.958440 -0.254721  0.128491
			 0.183783  0.978570 -0.092871
			-0.520010  0.838546  0.162571
			-0.365337  0.925695  0.098067
			-0.453769  0.889880  0.046976
			-0.305252  0.947846  0.091698
			-0.421176  0.906272  0.035806
			-0.981519  0.182085  0.058876
			-0.871312 -0.484989  0.074837
			-0.918595 -0.266260  0.292043
			 0.084324  0.988938 -0.122031
			 0.186255  0.876021 -0.444855
			 0.106062  0.832119 -0.544361
			-0.475047  0.874879 -0.094432
			-0.304837  0.874818 -0.376520
			-0.907157 -0.123392  0.402295
			-0.179954  0.878865  0.441829
			 0.082090  0.951662  0.295975
			-0.545620  0.793711  0.268928
			-0.360478  0.483060  0.797940
			-0.681955  0.244401  0.689352
			-0.570763 -0.085087  0.816695
			-0.306481  0.950749  0.046324
			-0.278191  0.960348 -0.018495
			-0.221415  0.974688  0.030965
			-0.184320  0.962469 -0.199197
			-0.170367  0.980541 -0.097545
			 0.567964  0.688756  0.450590
			 0.206237  0.977495 -0.044381
			 0.572968  0.455818  0.681130
			 0.322534  0.220773  0.920452
			 0.540377  0.577194  0.612242
			 0.449974 -0.487370  0.748328
			 0.098602 -0.132046  0.986327
			 0.150385 -0.004250  0.988618
			-0.527184 -0.846147  0.078189
			-0.260345 -0.708314  0.656134
			-0.406235 -0.614635  0.676164
			-0.487105 -0.751724  0.444567
			-0.249521 -0.340481  0.906539
			-0.297880 -0.506888  0.808908
			-0.039090 -0.343331  0.938400
			 0.420501 -0.882868 -0.209100
			 0.143424 -0.989306  0.026508
			 0.136476 -0.989860  0.039399
			-0.035084 -0.999062  0.025363
			 0.108041 -0.991454 -0.073117
			-0.162844 -0.986493 -0.017722
			-0.376418 -0.923572 -0.072968
			 0.150050 -0.979175 -0.136754
			 0.236702 -0.963390 -0.125904
			-0.573941 -0.792289 -0.207048
			-0.640945  0.763935  0.074782
			-0.911812 -0.074550 -0.403783
			-0.324526  0.935016  0.142925
			-0.271154  0.961209  0.050534
			-0.224872  0.967255  0.117687
			-0.087706  0.987013 -0.134583
			-0.062587  0.997996 -0.009288
			 0.229699  0.970971 -0.066731
			 0.401777  0.915650  0.012675
			 0.590343  0.806977  0.016841
			 0.539897  0.840570  0.044196
			 0.555703  0.824143  0.109466
			 0.206977 -0.976132 -0.065781
			 0.180373 -0.978503  0.099983
			 0.200304 -0.979676 -0.010687
			 0.846752 -0.045735  0.530019
			 0.206811 -0.924911  0.319011
			 0.246155 -0.939019  0.240108
			 0.569569  0.803266  0.174225
			-0.516950  0.855759 -0.020976
			-0.694251 -0.573495  0.434878
			-0.686125 -0.678466  0.262520
			-0.602275 -0.526559  0.600000
			 0.001325  0.931353 -0.364114
			 0.428791  0.822187  0.374362
			-0.650093 -0.527527  0.546895
			-0.680815 -0.415937  0.602900
			 0.234262  0.652064  0.721065
			-0.014835  0.030356  0.999429
			 0.238574  0.325932  0.914795
			-0.300096 -0.492648  0.816848
			 0.022676 -0.354830  0.934656
			 0.615051  0.418893  0.668013
			 0.530163  0.311794  0.788487
			 0.493609  0.437381  0.751697
			 0.032046 -0.004684  0.999475
			 0.369188  0.177158  0.912313
			-0.020743 -0.185626  0.982402
			-0.036878 -0.130081  0.990817
			-0.418867 -0.567429  0.708926
			-0.448347 -0.301406  0.841510
			-0.492158 -0.614739  0.616342
			-0.201279 -0.206797  0.957456
			-0.286636 -0.349787  0.891902
			-0.018095 -0.987889  0.154106
			-0.339734 -0.938776 -0.057266
			-0.400881 -0.908743 -0.116104
			-0.424403 -0.894953 -0.137628
			-0.401846 -0.895011 -0.193583
			-0.674486 -0.398714 -0.621366
			 0.096165  0.973846  0.205855
			-0.611039  0.693006 -0.382589
			-0.052206  0.981939  0.181856
			-0.003342  0.997820  0.065906
			 0.119862  0.982842  0.140196
			 0.170230  0.985392 -0.004855
			 0.404911  0.912981  0.050131
			 0.420259  0.901996  0.098923
			 0.206288 -0.953360  0.220343
			 0.705733  0.708381  0.011736
			 0.431620 -0.816624  0.383182
			 0.939486 -0.166758  0.299263
			-0.121186 -0.992505  0.015737
			 0.160056 -0.961505  0.223359
			 0.436226  0.890637  0.128344
			-0.182725 -0.609715  0.771271
			 0.217914 -0.304297  0.927317
			 0.435360 -0.102595  0.894391
			 0.166587 -0.257116  0.951914
			-0.258760 -0.965889 -0.010124
			-0.520021 -0.679748 -0.517224
			-0.476982 -0.083365 -0.874950
			-0.431747  0.347686 -0.832291
			 0.427315  0.870261  0.245046
			 0.472500  0.818794  0.326069
			 0.366950  0.904941  0.215475
			 0.068454  0.957764 -0.279288
			 0.326125  0.938832  0.110617
			 0.264347  0.961769  0.071569
			 0.488785  0.849535  0.198440
			 0.587215  0.791622  0.168858
			 0.675268  0.734156 -0.070911
			 0.719315  0.564072 -0.405474
			 0.814843 -0.448850 -0.366832
			-0.345716 -0.818006 -0.459725
			 0.109661 -0.902010 -0.417556
			 0.358687 -0.393005  0.846694
			-0.110157 -0.139568 -0.984066
			-0.052748  0.342637 -0.937986
			 0.489743  0.643413 -0.588364
			 0.537523  0.808542  0.239435
			 0.551635  0.826227  0.114228
			 0.701152  0.708359  0.081324
			 0.409677 -0.167892 -0.896648
		</DataArray>
	</PointData>
	<Points>
		<DataArray type="Float32" NumberOfComponents="3" format="ascii">
			 0.003910 -0.006024 -0.051255
			 0.005725  0.003011 -0.048362
			 0.004654 -0.007081 -0.043529
			 0.005396 -0.009371 -0.040965
			 0.006325 -0.008825 -0.052771
			 0.000258 -0.006162 -0.071118
			-0.001087 -0.002997 -0.070186
			-0.003239  0.004046 -0.081684
			 0.006795  0.003682 -0.029567
			 0.007859  0.004497 -0.029949
			 0.005510  0.002935 -0.028725
			 0.003925  0.002321 -0.027646
			 0.002732 -0.001007 -0.029521
			 0.012297  0.005043 -0.045167
			 0.001946 -0.010900 -0.026876
			 0.009197 -0.012817 -0.015976
			 0.014575 -0.009405 -0.036743
			 0.011434 -0.002519 -0.076212
			-0.007906 -0.003661 -0.087882
			-0.002524 -0.004653 -0.093687
			 0.000978 -0.005318 -0.087998
			-0.017025  0.006117 -0.103837
			-0.013673  0.009780 -0.103667
			-0.006385  0.006350 -0.109612
			-0.002187  0.004558 -0.095761
			 0.011258  0.002570 -0.075001
			 0.007369  0.004050 -0.026443
			 0.008374  0.004772 -0.028305
			 0.006264  0.003276 -0.026255
			 0.005042  0.002709 -0.026643
			 0.004815  0.002668 -0.024946
			 0.002344  0.002089 -0.021691
			 0.003641  0.002281 -0.023159
			-0.004757 -0.009260 -0.015913
			 0.001195  0.002128 -0.017679
			-0.000420  0.002330 -0.012830
			-0.004374  0.002359 -0.000579
			 0.017807  0.001118 -0.029083
			 0.013600  0.005560 -0.028561
			-0.003968 -0.011871 -0.016249
			-0.002345 -0.013782 -0.016138
			 0.012881 -0.010720 -0.004821
			 0.015692 -0.005563 -0.015820
			 0.001639 -0.015802 -0.011776
			 0.007838 -0.015254 -0.005235
			 0.002723 -0.004143 -0.089278
			 0.003750  0.000605 -0.098180
			-0.011854 -0.002868 -0.098389
			-0.000101 -0.005000 -0.090606
			-0.006924 -0.003701 -0.105546
			-0.008621 -0.003389 -0.107377
			-0.002214 -0.002716 -0.102653
			-0.005674 -0.003493 -0.106390
			 0.000981 -0.004095 -0.092460
			-0.018442  0.001135 -0.115090
			-0.015157  0.011152 -0.106193
			-0.016174  0.009002 -0.113410
			-0.008863  0.007574 -0.112901
			-0.006134  0.006107 -0.112835
			-0.008941  0.007842 -0.111108
			-0.004465  0.005180 -0.110336
			 0.000270  0.003540 -0.103661
			-0.000738  0.004380 -0.097629
			 0.002152  0.004105 -0.094450
			 0.005009  0.003867 -0.091283
			 0.005666  0.004735 -0.087001
			 0.007702  0.004113 -0.024727
			 0.006221  0.003219 -0.024105
			 0.009546  0.004868 -0.022685
			 0.005239  0.001936 -0.016525
			-0.007423 -0.010365 -0.012399
			-0.007148 -0.012323 -0.013510
			 0.001974  0.004273 -0.008387
			 0.004225  0.004153 -0.010304
			-0.000007  0.002983 -0.010604
			 0.000813  0.003700 -0.009602
			 0.005214  0.001997 -0.012765
			-0.005982 -0.002934 -0.003917
			 0.000221  0.005927 -0.001391
			-0.004367  0.002658  0.000921
			-0.005112 -0.000262 -0.001339
			 0.013982  0.003879 -0.014398
			 0.015086 -0.004724 -0.001167
			 0.015624 -0.000751 -0.004275
			 0.014458 -0.006556 -0.000779
			-0.005226 -0.013088 -0.014787
			-0.006147 -0.013525 -0.013308
			 0.011074 -0.012376 -0.002800
			 0.012669 -0.010312 -0.002649
			 0.005220 -0.015455 -0.004243
			 0.001644 -0.015603 -0.006119
			-0.002501 -0.015329 -0.009700
			 0.007134 -0.014923 -0.003221
			 0.008960 -0.013426 -0.001982
			 0.000431 -0.002330 -0.101660
			 0.001813  0.001090 -0.105319
			-0.010379 -0.002174 -0.115287
			-0.016184 -0.001528 -0.115644
			-0.009665 -0.002520 -0.112786
			-0.008859 -0.002912 -0.110646
			-0.000594 -0.002249 -0.102118
			-0.000117 -0.001773 -0.102325
			-0.005178 -0.002655 -0.108934
			-0.001202 -0.002778 -0.101889
			-0.006558 -0.002377 -0.111221
			-0.017591  0.000503 -0.128013
			-0.019416  0.003217 -0.127575
			-0.017412 -0.000008 -0.123720
			-0.016009  0.007166 -0.128902
			-0.015375  0.007901 -0.119522
			-0.015826  0.008443 -0.115845
			-0.012008  0.009400 -0.111934
			-0.010778  0.008892 -0.111722
			-0.012919  0.009473 -0.113350
			-0.014342  0.009298 -0.113501
			-0.011809  0.008823 -0.115102
			-0.005844  0.005921 -0.115807
			-0.004459  0.005055 -0.113528
			 0.001037  0.000774 -0.124970
			 0.000982  0.004024 -0.098427
			 0.008658  0.004174 -0.022658
			 0.006791  0.003099 -0.020141
			 0.007980  0.003282 -0.018298
			 0.009977  0.004730 -0.020432
			 0.006446  0.002519 -0.016709
			-0.006878 -0.005445 -0.005618
			-0.007412 -0.012245 -0.012126
			-0.007272 -0.010226 -0.007886
			 0.004291  0.006148 -0.002260
			 0.005546  0.004382 -0.009209
			 0.005712  0.003233 -0.010703
			 0.007076  0.002893 -0.014237
			 0.006853  0.003493 -0.010389
			-0.006324 -0.005982 -0.003254
			-0.000129  0.005848  0.001747
			 0.001770  0.006176  0.001285
			-0.001836  0.005102  0.001935
			-0.001430  0.004080  0.003273
			-0.003108  0.002561  0.002630
			-0.002076 -0.002223  0.004138
			 0.009883  0.004526 -0.018168
			 0.009321  0.004250 -0.013410
			 0.009610  0.004332 -0.015843
			 0.007985  0.004377 -0.009565
			 0.008891  0.004251 -0.011134
			 0.012570  0.002881 -0.004307
			 0.008244  0.004721 -0.006284
			 0.014953 -0.000806 -0.002966
			 0.013875 -0.004495 -0.000651
			 0.013852  0.000612 -0.003359
			 0.012335 -0.009991 -0.000856
			 0.011890 -0.008269 -0.000376
			 0.013016 -0.006346 -0.000317
			-0.004665 -0.014486 -0.010884
			 0.004091 -0.014900 -0.003966
			 0.002199 -0.014670 -0.004719
			-0.004304 -0.014129 -0.008745
			 0.005791 -0.012571 -0.001995
			 0.004624 -0.013875 -0.002815
			 0.008919 -0.011532 -0.000988
			 0.000462 -0.001133 -0.104247
			-0.008275 -0.001925 -0.119506
			-0.010225 -0.002246 -0.119373
			-0.012290 -0.002464 -0.119221
			-0.007987 -0.001923 -0.116291
			-0.011548 -0.002424 -0.122774
			-0.014324 -0.001286 -0.127607
			-0.007467 -0.002213 -0.113650
			-0.005080 -0.001654 -0.113921
			-0.015656 -0.000020 -0.132671
			-0.017643  0.007517 -0.134707
			-0.016593  0.006221 -0.143288
			-0.015904  0.008139 -0.133844
			-0.014767  0.007984 -0.128670
			-0.014640  0.008362 -0.131575
			-0.013264  0.008281 -0.119243
			-0.013170  0.007890 -0.123633
			-0.011158  0.008340 -0.118549
			-0.008002  0.007011 -0.119287
			-0.004054  0.004766 -0.116717
			-0.004848  0.005483 -0.119709
			-0.003365  0.004826 -0.123840
			-0.005708 -0.001587 -0.116543
			-0.009734 -0.002379 -0.122901
			-0.006054 -0.001609 -0.119668
			 0.006426 -0.000405 -0.135841
			-0.000603 -0.002672 -0.134122
			-0.002399 -0.002059 -0.130424
			-0.001425  0.004429 -0.129429
			 0.008348  0.003594 -0.016162
			-0.006079 -0.012163 -0.008294
			-0.006153 -0.013160 -0.009890
			-0.005865 -0.011041 -0.006816
			 0.006853  0.004479 -0.008709
			 0.006256  0.005491 -0.000659
			-0.004569 -0.006462 -0.001419
			-0.003796 -0.004989  0.001117
			 0.001982  0.004637  0.002965
			 0.000288  0.000758  0.004588
			 0.002195  0.002952  0.004255
			-0.002120 -0.004083  0.003128
			-0.000482 -0.001955  0.004335
			 0.010952  0.001800 -0.001815
			 0.009372  0.001352 -0.000044
			 0.012360 -0.000533 -0.001877
			 0.011071 -0.006269 -0.000316
			 0.010575 -0.000984 -0.000294
			 0.010324 -0.010099 -0.000612
			 0.009638 -0.008150 -0.000475
			-0.001981 -0.013730 -0.006559
			 0.002972 -0.013376 -0.003464
			-0.004216 -0.012923 -0.007112
			 0.007086 -0.011053 -0.001239
			 0.004171 -0.011862 -0.002531
			-0.003099 -0.003920 -0.137708
			-0.003980 -0.003968 -0.141305
			-0.012651 -0.001528 -0.132092
			-0.013961 -0.000767 -0.132995
			-0.002652 -0.004270 -0.144080
			-0.003900  0.000042 -0.154580
			-0.011968  0.010743 -0.143478
			-0.013653  0.010589 -0.144210
			-0.012147  0.009474 -0.138001
			-0.012339  0.008277 -0.128809
			-0.010734  0.008564 -0.134501
			-0.010524  0.007968 -0.123131
			-0.006829  0.006585 -0.123746
			-0.005137  0.006354 -0.129428
			-0.004486 -0.002522 -0.130700
			 0.009563  0.000589 -0.145668
			 0.007071 -0.004415 -0.140672
			 0.010320 -0.002412 -0.143239
			 0.002810 -0.005788 -0.144058
			-0.002678 -0.003066 -0.134228
			-0.003029  0.005950 -0.134698
			-0.001898 -0.006133  0.001813
			 0.001425 -0.001800  0.004204
			 0.003548  0.000380  0.003734
			 0.006047 -0.006571 -0.000043
			-0.000453 -0.005151 -0.142928
			-0.002537 -0.001082 -0.154736
			-0.002965  0.001301 -0.155472
			-0.007643  0.009843 -0.151545
			-0.002626  0.007206 -0.142764
			-0.004011  0.009022 -0.145514
			-0.004485  0.010309 -0.147881
			-0.006493  0.011070 -0.150794
			-0.007071  0.007804 -0.134836
			-0.008896  0.007828 -0.129162
			 0.000059  0.006239 -0.144838
			-0.000973  0.007784 -0.148535
			 0.000824  0.006402 -0.150007
			 0.002441  0.004297 -0.151601
			 0.010328 -0.004391 -0.148816
			 0.001061 -0.004132 -0.153987
			 0.003886 -0.004698 -0.153632
			 0.003048 -0.002059  0.003480
			-0.000667 -0.000514 -0.156323
			-0.002670  0.004285 -0.155104
			-0.000712  0.008210 -0.152154
			-0.001837  0.007653 -0.146058
			-0.002580  0.009567 -0.150236
			-0.000683  0.008049 -0.150445
			 0.002821 -0.003338 -0.155381
		</DataArray>
	</Points>
			<Polys>
				<DataArray type="Int32" Name="connectivity" format="ascii">
					2 1 0 
					0 3 2 
					5 4 0 
					6 5 0 
					3 0 4 
					0 7 6 
					7 0 1 
					9 1 8 
					1 11 10 
					1 10 8 
					1 12 11 
					1 2 12 
					13 1 9 
					13 7 1 
					2 14 12 
					3 14 2 
					15 14 3 
					4 15 3 
					15 4 16 
					17 16 4 
					5 17 4 
					6 18 5 
					5 18 19 
					20 17 5 
					20 5 19 
					6 7 18 
					21 18 7 
					7 22 21 
					7 23 22 
					7 24 23 
					25 24 7 
					7 13 25 
					27 8 26 
					8 27 9 
					8 10 28 
					8 28 26 
					13 9 27 
					10 11 29 
					28 10 29 
					11 30 29 
					12 31 11 
					32 11 31 
					30 11 32 
					12 14 33 
					12 34 31 
					12 35 34 
					12 36 35 
					12 33 36 
					25 13 37 
					37 13 38 
					13 27 38 
					39 33 14 
					39 14 40 
					15 40 14 
					15 42 41 
					43 40 15 
					42 15 16 
					44 15 41 
					43 15 44 
					16 17 37 
					42 16 37 
					45 17 20 
					17 45 46 
					17 46 25 
					25 37 17 
					47 18 21 
					19 18 47 
					48 20 19 
					19 50 49 
					50 19 47 
					19 52 51 
					49 52 19 
					53 48 19 
					19 51 53 
					45 20 48 
					21 54 47 
					56 21 55 
					54 21 56 
					22 55 21 
					23 55 22 
					23 58 57 
					57 59 23 
					55 23 59 
					61 60 23 
					62 61 23 
					62 23 24 
					58 23 60 
					62 24 63 
					64 63 24 
					24 65 64 
					25 65 24 
					25 64 65 
					46 64 25 
					67 66 26 
					26 28 67 
					66 27 26 
					66 68 27 
					38 27 68 
					30 67 28 
					30 28 29 
					67 30 32 
					32 31 69 
					31 34 69 
					69 67 32 
					33 70 36 
					33 71 70 
					71 33 39 
					73 34 72 
					34 35 74 
					74 75 34 
					34 75 72 
					76 34 73 
					34 76 69 
					74 35 36 
					77 36 70 
					78 74 36 
					78 36 79 
					36 77 80 
					79 36 80 
					38 81 37 
					37 83 82 
					83 37 81 
					37 84 42 
					82 84 37 
					68 81 38 
					85 39 40 
					71 39 85 
					86 40 43 
					40 86 85 
					41 87 44 
					42 84 41 
					88 41 84 
					87 41 88 
					43 44 89 
					90 43 89 
					90 91 43 
					91 86 43 
					44 93 92 
					87 93 44 
					89 44 92 
					53 46 45 
					48 53 45 
					94 46 53 
					64 46 95 
					46 94 95 
					47 97 96 
					97 47 54 
					47 96 98 
					47 98 50 
					50 52 49 
					50 98 99 
					50 99 52 
					101 100 51 
					51 52 102 
					53 51 103 
					100 103 51 
					51 102 101 
					52 99 104 
					52 104 102 
					53 103 94 
					54 106 105 
					107 97 54 
					109 108 54 
					106 54 108 
					105 107 54 
					109 54 110 
					56 110 54 
					55 112 111 
					113 55 111 
					114 55 113 
					56 55 114 
					55 59 112 
					114 110 56 
					57 116 115 
					58 116 57 
					115 59 57 
					116 58 117 
					58 60 117 
					115 112 59 
					117 60 61 
					61 118 117 
					61 62 119 
					64 61 119 
					95 118 61 
					95 61 64 
					62 63 119 
					119 63 64 
					68 66 120 
					66 67 120 
					67 69 121 
					122 67 121 
					120 67 122 
					68 123 81 
					123 68 120 
					76 124 69 
					69 124 121 
					77 70 125 
					70 71 126 
					70 126 127 
					125 70 127 
					85 86 71 
					126 71 86 
					73 72 78 
					72 75 78 
					129 73 128 
					78 128 73 
					76 73 129 
					74 78 75 
					76 129 130 
					132 131 76 
					132 76 130 
					131 124 76 
					133 77 125 
					80 77 133 
					135 78 134 
					78 135 128 
					78 136 134 
					79 136 78 
					136 79 137 
					79 138 137 
					133 79 80 
					139 79 133 
					138 79 139 
					123 140 81 
					142 141 81 
					144 143 81 
					81 145 83 
					140 142 81 
					141 144 81 
					81 146 145 
					143 146 81 
					83 147 82 
					148 82 147 
					84 82 148 
					83 149 147 
					145 149 83 
					84 150 88 
					150 84 151 
					151 84 152 
					84 148 152 
					86 153 126 
					153 86 91 
					150 87 88 
					87 150 93 
					90 89 154 
					92 154 89 
					156 90 155 
					90 156 91 
					90 154 155 
					156 153 91 
					92 93 157 
					92 158 154 
					157 158 92 
					93 150 159 
					93 159 157 
					100 94 103 
					94 100 101 
					95 94 160 
					160 94 101 
					118 95 160 
					96 162 161 
					163 96 97 
					162 96 163 
					161 164 96 
					98 96 164 
					97 166 165 
					97 165 163 
					166 97 107 
					99 98 167 
					98 164 167 
					167 104 99 
					160 101 102 
					102 104 168 
					168 160 102 
					168 104 167 
					169 105 106 
					107 105 166 
					105 169 166 
					108 170 106 
					170 171 106 
					106 171 169 
					172 170 108 
					109 173 108 
					174 172 108 
					108 173 174 
					175 109 110 
					176 173 109 
					176 109 175 
					110 114 175 
					115 111 112 
					113 111 115 
					114 113 115 
					114 115 177 
					114 177 175 
					177 115 116 
					177 116 178 
					117 179 116 
					116 180 178 
					180 116 179 
					117 118 179 
					181 180 118 
					168 182 118 
					184 183 118 
					184 118 182 
					160 168 118 
					118 186 185 
					187 186 118 
					187 118 183 
					188 181 118 
					188 118 185 
					180 179 118 
					122 123 120 
					121 124 122 
					131 122 124 
					189 122 131 
					140 123 122 
					122 189 140 
					125 127 133 
					127 126 190 
					153 191 126 
					126 191 190 
					133 127 192 
					190 192 127 
					193 129 128 
					128 146 193 
					128 194 146 
					135 194 128 
					130 129 193 
					193 132 130 
					131 144 141 
					131 141 189 
					131 143 144 
					132 143 131 
					132 193 143 
					133 192 195 
					133 196 139 
					195 196 133 
					197 135 134 
					137 134 136 
					197 134 137 
					197 194 135 
					137 139 198 
					199 197 137 
					137 138 139 
					198 199 137 
					196 200 139 
					200 201 139 
					139 201 198 
					140 189 142 
					189 141 142 
					143 193 146 
					146 194 145 
					145 203 202 
					145 194 203 
					145 204 149 
					145 202 204 
					149 204 147 
					148 147 204 
					205 152 148 
					204 206 148 
					205 148 206 
					150 151 207 
					207 159 150 
					207 151 208 
					208 151 205 
					151 152 205 
					153 156 191 
					155 154 158 
					155 209 156 
					210 209 155 
					158 210 155 
					156 211 190 
					190 191 156 
					209 211 156 
					213 157 212 
					210 158 157 
					210 157 213 
					157 159 212 
					212 159 207 
					183 184 161 
					162 183 161 
					184 164 161 
					183 162 163 
					163 165 183 
					184 182 164 
					167 164 182 
					214 165 166 
					214 183 165 
					166 215 214 
					215 166 216 
					166 217 216 
					166 169 217 
					182 168 167 
					218 215 169 
					219 169 171 
					219 218 169 
					215 217 169 
					170 172 220 
					170 221 171 
					220 221 170 
					221 219 171 
					172 222 220 
					172 174 222 
					173 176 223 
					174 173 223 
					223 224 174 
					222 174 224 
					175 177 225 
					225 176 175 
					223 176 225 
					225 177 178 
					178 226 225 
					180 226 178 
					180 181 226 
					181 188 227 
					227 226 181 
					183 228 187 
					214 228 183 
					229 188 185 
					186 230 185 
					231 185 230 
					229 185 231 
					232 186 214 
					214 186 233 
					232 230 186 
					186 187 228 
					186 228 233 
					188 229 234 
					188 234 227 
					211 192 190 
					192 235 195 
					192 211 209 
					192 209 235 
					203 194 197 
					235 196 195 
					196 235 200 
					197 199 203 
					198 201 236 
					236 237 198 
					237 199 198 
					237 203 199 
					235 201 200 
					235 236 201 
					202 203 206 
					202 206 204 
					203 237 238 
					238 206 203 
					238 208 205 
					238 205 206 
					208 212 207 
					238 212 208 
					209 210 213 
					213 235 209 
					213 212 238 
					213 238 235 
					239 214 215 
					239 232 214 
					233 228 214 
					215 216 217 
					215 218 239 
					219 240 218 
					232 218 240 
					232 239 218 
					240 219 241 
					221 242 219 
					219 242 241 
					243 220 234 
					245 220 244 
					246 221 220 
					220 224 247 
					222 224 220 
					220 247 234 
					220 243 244 
					220 245 246 
					221 246 242 
					248 224 223 
					225 248 223 
					248 247 224 
					248 225 226 
					248 226 227 
					247 248 227 
					227 234 247 
					229 250 249 
					250 229 251 
					251 229 252 
					252 229 253 
					231 253 229 
					229 249 234 
					253 230 232 
					253 231 230 
					240 254 232 
					255 253 232 
					255 232 254 
					234 249 243 
					235 256 236 
					235 238 256 
					237 236 256 
					237 256 238 
					241 257 240 
					254 240 257 
					241 242 258 
					258 257 241 
					246 259 242 
					242 259 258 
					243 260 244 
					249 260 243 
					244 261 245 
					260 261 244 
					261 246 245 
					259 246 261 
					250 260 249 
					260 250 261 
					261 250 262 
					251 262 250 
					252 262 251 
					252 263 259 
					263 252 253 
					252 259 262 
					255 263 253 
					257 263 254 
					255 254 263 
					259 257 258 
					263 257 259 
					261 262 259 
				</DataArray>
				<DataArray type="Int32" Name="offsets" format="ascii">