<?xml version="1.0"?>
<VTKFile type="PolyData" version="0.1" byte_order="LittleEndian" compressor="vtkZLibDataCompressor">
	<PolyData>
		<Piece NumberOfPoints="264" NumberOfVerts="0" NumberOfLines="0" NumberOfStrips="0" NumberOfPolys="524">
		<PointData Normals="Normals">
		<DataArray type="Float32" Name="Normals" NumberOfComponents="3" format="ascii">
			-0.960378 -0.239520 -0.142495
			-0.755397  0.654560 -0.030436
			-0.989852 -0.117525  0.079886
			-0.663690 -0.740270  0.107313
			-0.224605 -0.969014  0.102781
			-0.380069 -0.923545 -0.051105
			-0.947797 -0.117603 -0.296396
			-0.510760  0.814297 -0.275761
			-0.557500  0.829998 -0.017208
			-0.455749  0.890033  0.011554
			-0.425577  0.904858 -0.010806
			-0.509991  0.858997  0.045098
			-0.910022  0.333619  0.246085
			 0.079958  0.996001  0.039866
			-0.721872 -0.577855  0.380769
			 0.282006 -0.945774  0.161197
			 0.708977 -0.701139  0.075864
			 0.709916 -0.667592  0.224366
			-0.810587 -0.497738 -0.308554
			 0.013710 -0.994074  0.107841
			 0.218394 -0.965759  0.140047
			-0.917827  0.180384 -0.353632
			-0.093658  0.908864 -0.406442
			 0.438037  0.898956  0.001057
			 0.085542  0.995731 -0.034666
			 0.659743  0.740609  0.127425
			-0.543516  0.838806 -0.031539
			-0.398153  0.917086 -0.020681
			-0.475355  0.879774 -0.005962
			-0.373788  0.927493  0.006271
			-0.355972  0.934377  0.014925
			-0.428502  0.899219  0.088262
			-0.241393  0.969953 -0.030330
			-0.842174  0.133377  0.522449
			-0.277357  0.936688  0.213750
			-0.622604  0.750636  0.221155
			-0.811115  0.553379  0.189380
			 0.984109  0.177450  0.006408
			 0.256009  0.966437 -0.021421
			-0.671281 -0.331842  0.662768
			-0.293113 -0.831356  0.472158
			 0.785080 -0.618460 -0.034022
			 0.892415 -0.450886 -0.017241
			-0.014879 -0.987908  0.154327
			 0.423940 -0.902224 -0.079159
			 0.486321 -0.831768  0.267683
			 0.886989 -0.339259  0.313296
			-0.504391 -0.860537 -0.071174
			 0.265403 -0.935338  0.233890
			-0.013786 -0.993811  0.110230
			-0.132553 -0.986297  0.098228
			 0.342596 -0.883927  0.318278
			 0.196547 -0.960699  0.196029
			 0.371538 -0.899177  0.231171
			-0.996050 -0.086519 -0.019945
			 0.053879  0.998333 -0.020676
			-0.732304  0.662189  0.158862
			 0.477036  0.876599  0.063329
			 0.502943  0.864103  0.019344
			 0.504800  0.860704  0.066074
			 0.473151  0.879249  0.055228
			 0.481145  0.869208  0.113916
			 0.214248  0.976085  0.036818
			 0.136242  0.989729  0.043294
			 0.572175  0.791122  0.216197
			 0.236377  0.970287  0.051658
			-0.500442  0.856109 -0.128982
			-0.410393  0.909056 -0.072077
			-0.286311  0.951221 -0.114911
			-0.231420  0.971407 -0.053048
			-0.940029  0.249473  0.232613
			-0.804985 -0.263527  0.531557
			-0.188664  0.952963  0.237207
			 0.084031  0.937334  0.338147
			-0.497793  0.842877  0.204356
			-0.348880  0.907984  0.232051
			-0.027259  0.949123  0.313725
			-0.954024  0.299713 -0.003240
			-0.353183  0.918973  0.175356
			-0.872362  0.410338 -0.265720
			-0.973730  0.216419 -0.070796
			 0.281856  0.957382 -0.063058
			 0.843093  0.068378 -0.533403
			 0.844813  0.449409 -0.290384
			 0.766699 -0.290621 -0.572462
			-0.535453 -0.533354  0.654846
			-0.471562 -0.842611  0.260068
			 0.663220 -0.706755 -0.246244
			 0.802559 -0.556331 -0.215393
			-0.036673 -0.947270 -0.318330
			-0.258219 -0.884259 -0.389114
			-0.290885 -0.956205 -0.032532
			 0.012681 -0.757562 -0.652640
			 0.260196 -0.691436 -0.673954
			 0.443847 -0.779369  0.442248
			 0.972447 -0.069063  0.222660
			-0.009264 -0.999864  0.013683
			-0.417339 -0.908747  0.002774
			-0.093206 -0.987521  0.126943
			 0.061039 -0.982702  0.174846
			 0.340254 -0.657785  0.671971
			 0.245818 -0.848856  0.467993
			 0.335886 -0.919067  0.206144
			 0.265804 -0.859541  0.436506
			 0.186183 -0.962490  0.197353
			-0.710782 -0.695084  0.107922
			-0.997977 -0.017008  0.061254
			-0.655005 -0.753673  0.054264
			-0.628950  0.768059 -0.120450
			-0.506750  0.858675  0.076690
			-0.549988  0.804360  0.224761
			 0.346734  0.929874  0.122923
			 0.455105  0.885963  0.089153
			 0.110356  0.965187  0.237140
			-0.083077  0.968053  0.236582
			 0.333286  0.930288  0.153246
			 0.476318  0.879267  0.003206
			 0.513691  0.857532  0.027573
			 0.958440 -0.254720 -0.128492
			 0.183801  0.978566  0.092880
			-0.520007  0.838548 -0.162574
			-0.365349  0.925690 -0.098076
			-0.453784  0.889872 -0.046980
			-0.305248  0.947849 -0.091684
			-0.421180  0.906270 -0.035802
			-0.981516  0.182104 -0.058861
			-0.871306 -0.484999 -0.074840
			-0.918597 -0.266259 -0.292038
			 0.084324  0.988938  0.122032
			 0.186272  0.876016  0.444859
			 0.106110  0.832107  0.544370
			-0.475046  0.874879  0.094431
			-0.304826  0.874821  0.376522
			-0.907156 -0.123388 -0.402298
			-0.179961  0.878861 -0.441834
			 0.082087  0.951661 -0.295977
			-0.545610  0.793716 -0.268933
			-0.360477  0.483061 -0.797940
			-0.681960  0.244392 -0.689350
			-0.570771 -0.085088 -0.816689
			-0.306491  0.950745 -0.046332
			-0.278196  0.960346  0.018494
			-0.221431  0.974684 -0.030971
			-0.184327  0.962467  0.199201
			-0.170363  0.980542  0.097538
			 0.567950  0.688770 -0.450587
			 0.206228  0.977497  0.044386
			 0.572946  0.455818 -0.681148
			 0.322524  0.220780 -0.920453
			 0.540366  0.577184 -0.612261
			 0.449974 -0.487366 -0.748330
			 0.098614 -0.132060 -0.986324
			 0.150394 -0.004258 -0.988617
			-0.527181 -0.846148 -0.078195
			-0.260339 -0.708318 -0.656132
			-0.406230 -0.614652 -0.676151
			-0.487102 -0.751735 -0.444552
			-0.249527 -0.340468 -0.906542
			-0.297872 -0.506896 -0.808906
			-0.039092 -0.343311 -0.938408
			 0.420483 -0.882873  0.209116
			 0.143426 -0.989306 -0.026505
			 0.136473 -0.989860 -0.039390
			-0.035073 -0.999063 -0.025359
			 0.108046 -0.991454  0.073113
			-0.162834 -0.986494  0.017720
			-0.376416 -0.923573  0.072966
			 0.150048 -0.979175  0.136754
			 0.236691 -0.963393  0.125900
			-0.573938 -0.792293  0.207042
			-0.640947  0.763934 -0.074782
			-0.911812 -0.074550  0.403783
			-0.324513  0.935020 -0.142931
			-0.271149  0.961210 -0.050532
			-0.224860  0.967258 -0.117688
			-0.087707  0.987013  0.134586
			-0.062589  0.997996  0.009287
			 0.229692  0.970973  0.066734
			 0.401778  0.915649 -0.012677
			 0.590329  0.806987 -0.016842
			 0.539893  0.840573 -0.044193
			 0.555700  0.824145 -0.109465
			 0.206967 -0.976134  0.065786
			 0.180381 -0.978502 -0.099979
			 0.200309 -0.979674  0.010694
			 0.846751 -0.045734 -0.530019
			 0.206812 -0.924910 -0.319013
			 0.246164 -0.939013 -0.240123
			 0.569569  0.803267 -0.174224
			-0.516957  0.855755  0.020971
			-0.694242 -0.573510 -0.434873
			-0.686114 -0.678482 -0.262505
			-0.602277 -0.526564 -0.599994
			 0.001345  0.931352  0.364118
			 0.428795  0.822185 -0.374363
			-0.650101 -0.527509 -0.546903
			-0.680832 -0.415912 -0.602897
			 0.234262  0.652060 -0.721068
			-0.014846  0.030352 -0.999429
			 0.238575  0.325935 -0.914794
			-0.300111 -0.492631 -0.816852
			 0.022671 -0.354824 -0.934658
			 0.615036  0.418909 -0.668016
			 0.530158  0.311809 -0.788484
			 0.493606  0.437375 -0.751702
			 0.032045 -0.004674 -0.999475
			 0.369184  0.177153 -0.912315
			-0.020733 -0.185627 -0.982402
			-0.036862 -0.130086 -0.990817
			-0.418872 -0.567442 -0.708911
			-0.448350 -0.301395 -0.841513
			-0.492162 -0.614751 -0.616326
			-0.201283 -0.206793 -0.957456
			-0.286644 -0.349768 -0.891907
			-0.018100 -0.987889 -0.154100
			-0.339725 -0.938780  0.057260
			-0.400871 -0.908748  0.116099
			-0.424395 -0.894957  0.137625
			-0.401840 -0.895017  0.193570
			-0.674482 -0.398714  0.621370
			 0.096168  0.973846 -0.205856
			-0.611043  0.693001  0.382592
			-0.052194  0.981937 -0.181864
			-0.003339  0.997820 -0.065903
			 0.119863  0.982841 -0.140200
			 0.170231  0.985392  0.004858
			 0.404911  0.912981 -0.050126
			 0.420258  0.901996 -0.098924
			 0.206287 -0.953359 -0.220347
			 0.705731  0.708383 -0.011734
			 0.431619 -0.816625 -0.383181
			 0.939487 -0.166755 -0.299262
			-0.121191 -0.992504 -0.015737
			 0.160051 -0.961508 -0.223354
			 0.436227  0.890637 -0.128345
			-0.182727 -0.609711 -0.771273
			 0.217906 -0.304301 -0.927318
			 0.435360 -0.102596 -0.894392
			 0.166589 -0.257116 -0.951914
			-0.258765 -0.965887  0.010119
			-0.520023 -0.679751  0.517218
			-0.477000 -0.083378  0.874939
			-0.431756  0.347681  0.832289
			 0.427313  0.870262 -0.245044
			 0.472506  0.818790 -0.326070
			 0.366949  0.904941 -0.215476
			 0.068449  0.957763  0.279294
			 0.326122  0.938833 -0.110621
			 0.264346  0.961769 -0.071571
			 0.488779  0.849541 -0.198434
			 0.587219  0.791619 -0.168857
			 0.675271  0.734154  0.070905
			 0.719316  0.564071  0.405473
			 0.814844 -0.448845  0.366834
			-0.345728 -0.818009  0.459709
			 0.109652 -0.902012  0.417554
			 0.358687 -0.393013 -0.846691
			-0.110182 -0.139583  0.984061
			-0.052781  0.342625  0.937989
			 0.489739  0.643410  0.588370
			 0.537526  0.808541 -0.239432
			 0.551642  0.826223 -0.114224
			 0.701158  0.708353 -0.081323
			 0.409676 -0.167899  0.896647
		</DataArray>
	</PointData>
	<Points>
		<DataArray type="Float32" NumberOfComponents="3" format="ascii">
			 0.003910 -0.006024  0.051255
			 0.005725  0.003011  0.048362
			 0.004654 -0.007081  0.043529
			 0.005396 -0.009371  0.040965
			 0.006325 -0.008825  0.052771
			 0.000258 -0.006162  0.071118
			-0.001087 -0.002997  0.070186
			-0.003239  0.004046  0.081684
			 0.006795  0.003682  0.029567
			 0.007859  0.004497  0.029949
			 0.005510  0.002935  0.028725
			 0.003925  0.002321  0.027646
			 0.002732 -0.001007  0.029521
			 0.012297  0.005043  0.045167
			 0.001946 -0.010900  0.026876
			 0.009197 -0.012817  0.015976
			 0.014575 -0.009405  0.036743
			 0.011434 -0.002519  0.076212
			-0.007906 -0.003661  0.087882
			-0.002524 -0.004653  0.093687
			 0.000978 -0.005318  0.087998
			-0.017025  0.006117  0.103837
			-0.013673  0.009780  0.103667
			-0.006385  0.006350  0.109612
			-0.002187  0.004558  0.095761
			 0.011258  0.002570  0.075001
			 0.007369  0.004050  0.026443
			 0.008374  0.004772  0.028305
			 0.006264  0.003276  0.026255
			 0.005042  0.002709  0.026643
			 0.004815  0.002668  0.024946
			 0.002344  0.002089  0.021691
			 0.003641  0.002281  0.023159
			-0.004757 -0.009260  0.015913
			 0.001195  0.002128  0.017679
			-0.000420  0.002330  0.012830
			-0.004374  0.002359  0.000579
			 0.017807  0.001118  0.029083
			 0.013600  0.005560  0.028561
			-0.003968 -0.011871  0.016249
			-0.002345 -0.013782  0.016138
			 0.012881 -0.010720  0.004821
			 0.015692 -0.005563  0.015820
			 0.001639 -0.015802  0.011776
			 0.007838 -0.015254  0.005235
			 0.002723 -0.004143  0.089278
			 0.003750  0.000605  0.098180
			-0.011854 -0.002868  0.098389
			-0.000101 -0.005000  0.090606
			-0.006924 -0.003701  0.105546
			-0.008621 -0.003389  0.107377
			-0.002214 -0.002716  0.102653
			-0.005674 -0.003493  0.106390
			 0.000981 -0.004095  0.092460
			-0.018442  0.001135  0.115090
			-0.015157  0.011152  0.106193
			-0.016174  0.009002  0.113410
			-0.008863  0.007574  0.112901
			-0.006134  0.006107  0.112835
			-0.008941  0.007842  0.111108
			-0.004465  0.005180  0.110336
			 0.000270  0.003540  0.103661
			-0.000738  0.004380  0.097629
			 0.002152  0.004105  0.094450
			 0.005009  0.003867  0.091283
			 0.005666  0.004735  0.087001
			 0.007702  0.004113  0.024727
			 0.006221  0.003219  0.024105
			 0.009546  0.004868  0.022685
			 0.005239  0.001936  0.016525
			-0.007423 -0.010365  0.012399
			-0.007148 -0.012323  0.013510
			 0.001974  0.004273  0.008387
			 0.004225  0.004153  0.010304
			-0.000007  0.002983  0.010604
			 0.000813  0.003700  0.009602
			 0.005214  0.001997  0.012765
			-0.005982 -0.002934  0.003917
			 0.000221  0.005927  0.001391
			-0.004367  0.002658 -0.000921
			-0.005112 -0.000262  0.001339
			 0.013982  0.003879  0.014398
			 0.015086 -0.004724  0.001167
			 0.015624 -0.000751  0.004275
			 0.014458 -0.006556  0.000779
			-0.005226 -0.013088  0.014787
			-0.006147 -0.013525  0.013308
			 0.011074 -0.012376  0.002800
			 0.012669 -0.010312  0.002649
			 0.005220 -0.015455  0.004243
			 0.001644 -0.015603  0.006119
			-0.002501 -0.015329  0.009700
			 0.007134 -0.014923  0.003221
			 0.008960 -0.013426  0.001982
			 0.000431 -0.002330  0.101660
			 0.001813  0.001090  0.105319
			-0.010379 -0.002174  0.115287
			-0.016184 -0.001528  0.115644
			-0.009665 -0.002520  0.112786
			-0.008859 -0.002912  0.110646
			-0.000594 -0.002249  0.102118
			-0.000117 -0.001773  0.102325
			-0.005178 -0.002655  0.108934
			-0.001202 -0.002778  0.101889
			-0.006558 -0.002377  0.111221
			-0.017591  0.000503  0.128013
			-0.019416  0.003217  0.127575
			-0.017412 -0.000008  0.123720
			-0.016009  0.007166  0.128902
			-0.015375  0.007901  0.119522
			-0.015826  0.008443  0.115845
			-0.012008  0.009400  0.111934
			-0.010778  0.008892  0.111722
			-0.012919  0.009473  0.113350
			-0.014342  0.009298  0.113501
			-0.011809  0.008823  0.115102
			-0.005844  0.005921  0.115807
			-0.004459  0.005055  0.113528
			 0.001037  0.000774  0.124970
			 0.000982  0.004024  0.098427
			 0.008658  0.004174  0.022658
			 0.006791  0.003099  0.020141
			 0.007980  0.003282  0.018298
			 0.009977  0.004730  0.020432
			 0.006446  0.002519  0.016709
			-0.006878 -0.005445  0.005618
			-0.007412 -0.012245  0.012126
			-0.007272 -0.010226  0.007886
			 0.004291  0.006148  0.002260
			 0.005546  0.004382  0.009209
			 0.005712  0.003233  0.010703
			 0.007076  0.002893  0.014237
			 0.006853  0.003493  0.010389
			-0.006324 -0.005982  0.003254
			-0.000129  0.005848 -0.001747
			 0.001770  0.006176 -0.001285
			-0.001836  0.005102 -0.001935
			-0.001430  0.004080 -0.003273
			-0.003108  0.002561 -0.002630
			-0.002076 -0.002223 -0.004138
			 0.009883  0.004526  0.018168
			 0.009321  0.004250  0.013410
			 0.009610  0.004332  0.015843
			 0.007985  0.004377  0.009565
			 0.008891  0.004251  0.011134
			 0.012570  0.002881  0.004307
			 0.008244  0.004721  0.006284
			 0.014953 -0.000806  0.002966
			 0.013875 -0.004495  0.000651
			 0.013852  0.000612  0.003359
			 0.012335 -0.009991  0.000856
			 0.011890 -0.008269  0.000376
			 0.013016 -0.006346  0.000317
			-0.004665 -0.014486  0.010884
			 0.004091 -0.014900  0.003966
			 0.002199 -0.014670  0.004719
			-0.004304 -0.014129  0.008745
			 0.005791 -0.012571  0.001995
			 0.004624 -0.013875  0.002815
			 0.008919 -0.011532  0.000988
			 0.000462 -0.001133  0.104247
			-0.008275 -0.001925  0.119506
			-0.010225 -0.002246  0.119373
			-0.012290 -0.002464  0.119221
			-0.007987 -0.001923  0.116291
			-0.011548 -0.002424  0.122774
			-0.014324 -0.001286  0.127607
			-0.007467 -0.002213  0.113650
			-0.005080 -0.001654  0.113921
			-0.015656 -0.000020  0.132671
			-0.017643  0.007517  0.134707
			-0.016593  0.006221  0.143288
			-0.015904  0.008139  0.133844
			-0.014767  0.007984  0.128670
			-0.014640  0.008362  0.131575
			-0.013264  0.008281  0.119243
			-0.013170  0.007890  0.123633
			-0.011158  0.008340  0.118549
			-0.008002  0.007011  0.119287
			-0.004054  0.004766  0.116717
			-0.004848  0.005483  0.119709
			-0.003365  0.004826  0.123840
			-0.005708 -0.001587  0.116543
			-0.009734 -0.002379  0.122901
			-0.006054 -0.001609  0.119668
			 0.006426 -0.000405  0.135841
			-0.000603 -0.002672  0.134122
			-0.002399 -0.002059  0.130424
			-0.001425  0.004429  0.129429
			 0.008348  0.003594  0.016162
			-0.006079 -0.012163  0.008294
			-0.006153 -0.013160  0.009890
			-0.005865 -0.011041  0.006816
			 0.006853  0.004479  0.008709
			 0.006256  0.005491  0.000659
			-0.004569 -0.006462  0.001419
			-0.003796 -0.004989 -0.001117
			 0.001982  0.004637 -0.002965
			 0.000288  0.000758 -0.004588
			 0.002195  0.002952 -0.004255
			-0.002120 -0.004083 -0.003128
			-0.000482 -0.001955 -0.004335
			 0.010952  0.001800  0.001815
			 0.009372  0.001352  0.000044
			 0.012360 -0.000533  0.001877
			 0.011071 -0.006269  0.000316
			 0.010575 -0.000984  0.000294
			 0.010324 -0.010099  0.000612
			 0.009638 -0.008150  0.000475
			-0.001981 -0.013730  0.006559
			 0.002972 -0.013376  0.003464
			-0.004216 -0.012923  0.007112
			 0.007086 -0.011053  0.001239
			 0.004171 -0.011862  0.002531
			-0.003099 -0.003920  0.137708
			-0.003980 -0.003968  0.141305
			-0.012651 -0.001528  0.132092
			-0.013961 -0.000767  0.132995
			-0.002652 -0.004270  0.144080
			-0.003900  0.000042  0.154580
			-0.011968  0.010743  0.143478
			-0.013653  0.010589  0.144210
			-0.012147  0.009474  0.138001
			-0.012339  0.008277  0.128809
			-0.010734  0.008564  0.134501
			-0.010524  0.007968  0.123131
			-0.006829  0.006585  0.123746
			-0.005137  0.006354  0.129428
			-0.004486 -0.002522  0.130700
			 0.009563  0.000589  0.145668
			 0.007071 -0.004415  0.140672
			 0.010320 -0.002412  0.143239
			 0.002810 -0.005788  0.144058
			-0.002678 -0.003066  0.134228
			-0.003029  0.005950  0.134698
			-0.001898 -0.006133 -0.001813
			 0.001425 -0.001800 -0.004204
			 0.003548  0.000380 -0.003734
			 0.006047 -0.006571  0.000043
			-0.000453 -0.005151  0.142928
			-0.002537 -0.001082  0.154736
			-0.002965  0.001301  0.155472
			-0.007643  0.009843  0.151545
			-0.002626  0.007206  0.142764
			-0.004011  0.009022  0.145514
			-0.004485  0.010309  0.147881
			-0.006493  0.011070  0.150794
			-0.007071  0.007804  0.134836
			-0.008896  0.007828  0.129162
			 0.000059  0.006239  0.144838
			-0.000973  0.007784  0.148535
			 0.000824  0.006402  0.150007
			 0.002441  0.004297  0.151601
			 0.010328 -0.004391  0.148816
			 0.001061 -0.004132  0.153987
			 0.003886 -0.004698  0.153632
			 0.003048 -0.002059 -0.003480
			-0.000667 -0.000514  0.156323
			-0.002670  0.004285  0.155104
			-0.000712  0.008210  0.152154
			-0.001837  0.007653  0.146058
			-0.002580  0.009567  0.150236
			-0.000683  0.008049  0.150445
			 0.002821 -0.003338  0.155381
		</DataArray>
	</Points>
			<Polys>
				<DataArray type="Int32" Name="connectivity" format="ascii">
					0 1 2 
					2 3 0 
					0 4 5 
					0 5 6 
					4 0 3 
					6 7 0 
					1 0 7 
					8 1 9 
					10 11 1 
					8 10 1 
					11 12 1 
					12 2 1 
					9 1 13 
					1 7 13 
					12 14 2 
					2 14 3 
					3 14 15 
					3 15 4 
					16 4 15 
					4 16 17 
					4 17 5 
					5 18 6 
					19 18 5 
					5 17 20 
					19 5 20 
					18 7 6 
					7 18 21 
					21 22 7 
					22 23 7 
					23 24 7 
					7 24 25 
					25 13 7 
					26 8 27 
					9 27 8 
					28 10 8 
					26 28 8 
					27 9 13 
					29 11 10 
					29 10 28 
					29 30 11 
					11 31 12 
					31 11 32 
					32 11 30 
					33 14 12 
					31 34 12 
					34 35 12 
					35 36 12 
					36 33 12 
					37 13 25 
					38 13 37 
					38 27 13 
					14 33 39 
					40 14 39 
					14 40 15 
					41 42 15 
					15 40 43 
					16 15 42 
					41 15 44 
					44 15 43 
					37 17 16 
					37 16 42 
					20 17 45 
					46 45 17 
					25 46 17 
					17 37 25 
					21 18 47 
					47 18 19 
					19 20 48 
					49 50 19 
					47 19 50 
					51 52 19 
					19 52 49 
					19 48 53 
					53 51 19 
					48 20 45 
					47 54 21 
					55 21 56 
					56 21 54 
					21 55 22 
					22 55 23 
					57 58 23 
					23 59 57 
					59 23 55 
					23 60 61 
					23 61 62 
					24 23 62 
					60 23 58 
					63 24 62 
					24 63 64 
					64 65 24 
					24 65 25 
					65 64 25 
					25 64 46 
					26 66 67 
					67 28 26 
					26 27 66 
					27 68 66 
					68 27 38 
					28 67 30 
					29 28 30 
					32 30 67 
					69 31 32 
					69 34 31 
					32 67 69 
					36 70 33 
					70 71 33 
					39 33 71 
					72 34 73 
					74 35 34 
					34 75 74 
					72 75 34 
					73 34 76 
					69 76 34 
					36 35 74 
					70 36 77 
					36 74 78 
					79 36 78 
					80 77 36 
					80 36 79 
					37 81 38 
					82 83 37 
					81 37 83 
					42 84 37 
					37 84 82 
					38 81 68 
					40 39 85 
					85 39 71 
					43 40 86 
					85 86 40 
					44 87 41 
					41 84 42 
					84 41 88 
					88 41 87 
					89 44 43 
					89 43 90 
					43 91 90 
					43 86 91 
					92 93 44 
					44 93 87 
					92 44 89 
					45 46 53 
					45 53 48 
					53 46 94 
					95 46 64 
					95 94 46 
					96 97 47 
					54 47 97 
					98 96 47 
					50 98 47 
					49 52 50 
					99 98 50 
					52 99 50 
					51 100 101 
					102 52 51 
					103 51 53 
					51 103 100 
					101 102 51 
					104 99 52 
					102 104 52 
					94 103 53 
					105 106 54 
					54 97 107 
					54 108 109 
					108 54 106 
					54 107 105 
					110 54 109 
					54 110 56 
					111 112 55 
					111 55 113 
					113 55 114 
					114 55 56 
					112 59 55 
					56 110 114 
					115 116 57 
					57 116 58 
					57 59 115 
					117 58 116 
					117 60 58 
					59 112 115 
					61 60 117 
					117 118 61 
					119 62 61 
					119 61 64 
					61 118 95 
					64 61 95 
					119 63 62 
					64 63 119 
					120 66 68 
					120 67 66 
					121 69 67 
					121 67 122 
					122 67 120 
					81 123 68 
					120 68 123 
					69 124 76 
					121 124 69 
					125 70 77 
					126 71 70 
					127 126 70 
					127 70 125 
					71 86 85 
					86 71 126 
					78 72 73 
					78 75 72 
					128 73 129 
					73 128 78 
					129 73 76 
					75 78 74 
					130 129 76 
					76 131 132 
					130 76 132 
					76 124 131 
					125 77 133 
					133 77 80 
					134 78 135 
					128 135 78 
					134 136 78 
					78 136 79 
					137 79 136 
					137 138 79 
					80 79 133 
					133 79 139 
					139 79 138 
					81 140 123 
					81 141 142 
					81 143 144 
					83 145 81 
					81 142 140 
					81 144 141 
					145 146 81 
					81 146 143 
					82 147 83 
					147 82 148 
					148 82 84 
					147 149 83 
					83 149 145 
					88 150 84 
					151 84 150 
					152 84 151 
					152 148 84 
					126 153 86 
					91 86 153 
					88 87 150 
					93 150 87 
					154 89 90 
					89 154 92 
					155 90 156 
					91 156 90 
					155 154 90 
					91 153 156 
					157 93 92 
					154 158 92 
					92 158 157 
					159 150 93 
					157 159 93 
					103 94 100 
					101 100 94 
					160 94 95 
					101 94 160 
					160 95 118 
					161 162 96 
					97 96 163 
					163 96 162 
					96 164 161 
					164 96 98 
					165 166 97 
					163 165 97 
					107 97 166 
					167 98 99 
					167 164 98 
					99 104 167 
					102 101 160 
					168 104 102 
					102 160 168 
					167 104 168 
					106 105 169 
					166 105 107 
					166 169 105 
					106 170 108 
					106 171 170 
					169 171 106 
					108 170 172 
					108 173 109 
					108 172 174 
					174 173 108 
					110 109 175 
					109 173 176 
					175 109 176 
					175 114 110 
					112 111 115 
					115 111 113 
					115 113 114 
					177 115 114 
					175 177 114 
					116 115 177 
					178 116 177 
					116 179 117 
					178 180 116 
					179 116 180 
					179 118 117 
					118 180 181 
					118 182 168 
					118 183 184 
					182 118 184 
					118 168 160 
					185 186 118 
					118 186 187 
					183 118 187 
					118 181 188 
					185 118 188 
					118 179 180 
					120 123 122 
					122 124 121 
					124 122 131 
					131 122 189 
					122 123 140 
					140 189 122 
					133 127 125 
					190 126 127 
					126 191 153 
					190 191 126 
					192 127 133 
					127 192 190 
					128 129 193 
					193 146 128 
					146 194 128 
					128 194 135 
					193 129 130 
					130 132 193 
					141 144 131 
					189 141 131 
					144 143 131 
					131 143 132 
					143 193 132 
					195 192 133 
					139 196 133 
					133 196 195 
					134 135 197 
					136 134 137 
					137 134 197 
					135 194 197 
					198 139 137 
					137 197 199 
					139 138 137 
					137 199 198 
					139 200 196 
					139 201 200 
					198 201 139 
					142 189 140 
					142 141 189 
					146 193 143 
					145 194 146 
					202 203 145 
					203 194 145 
					149 204 145 
					204 202 145 
					147 204 149 
					204 147 148 
					148 152 205 
					148 206 204 
					206 148 205 
					207 151 150 
					150 159 207 
					208 151 207 
					205 151 208 
					205 152 151 
					191 156 153 
					158 154 155 
					156 209 155 
					155 209 210 
					155 210 158 
					190 211 156 
					156 191 190 
					156 211 209 
					212 157 213 
					157 158 210 
					213 157 210 
					212 159 157 
					207 159 212 
					161 184 183 
					161 183 162 
					161 164 184 
					163 162 183 
					183 165 163 
					164 182 184 
					182 164 167 
					166 165 214 
					165 183 214 
					214 215 166 
					216 166 215 
					216 217 166 
					217 169 166 
					167 168 182 
					169 215 218 
					171 169 219 
					169 218 219 
					169 217 215 
					220 172 170 
					171 221 170 
					170 221 220 
					171 219 221 
					220 222 172 
					222 174 172 
					223 176 173 
					223 173 174 
					174 224 223 
					224 174 222 
					225 177 175 
					175 176 225 
					225 176 223 
					178 177 225 
					225 226 178 
					178 226 180 
					226 181 180 
					227 188 181 
					181 226 227 
					187 228 183 
					183 228 214 
					185 188 229 
					185 230 186 
					230 185 231 
					231 185 229 
					214 186 232 
					233 186 214 
					186 230 232 
					228 187 186 
					233 228 186 
					234 229 188 
					227 234 188 
					190 192 211 
					195 235 192 
					209 211 192 
					235 209 192 
					197 194 203 
					195 196 235 
					200 235 196 
					203 199 197 
					236 201 198 
					198 237 236 
					198 199 237 
					199 203 237 
					200 201 235 
					201 236 235 
					206 203 202 
					204 206 202 
					238 237 203 
					203 206 238 
					205 208 238 
					206 205 238 
					207 212 208 
					208 212 238 
					213 210 209 
					209 235 213 
					238 212 213 
					235 238 213 
					215 214 239 
					214 232 239 
					214 228 233 
					217 216 215 
					239 218 215 
					218 240 219 
					240 218 232 
					218 239 232 
					241 219 240 
					219 242 221 
					241 242 219 
					234 220 243 
					244 220 245 
					220 221 246 
					247 224 220 
					220 224 222 
					234 247 220 
					244 243 220 
					246 245 220 
					242 246 221 
					223 224 248 
					223 248 225 
					224 247 248 
					226 225 248 
					227 226 248 
					227 248 247 
					247 234 227 
					249 250 229 
					251 229 250 
					252 229 251 
					253 229 252 
					229 253 231 
					234 249 229 
					232 230 253 
					230 231 253 
					232 254 240 
					232 253 255 
					254 232 255 
					243 249 234 
					236 256 235 
					256 238 235 
					256 236 237 
					238 256 237 
					240 257 241 
					257 240 254 
					258 242 241 
					241 257 258 
					242 259 246 
					258 259 242 
					244 260 243 
					243 260 249 
					245 261 244 
					244 261 260 
					245 246 261 
					261 246 259 
					249 260 250 
					261 250 260 
					262 250 261 
					250 262 251 
					251 262 252 
					259 263 252 
					253 252 263 
					262 259 252 
					253 263 255 
					254 263 257 
					263 254 255 
					258 257 259 
					259 257 263 
					259 262 261 
				</DataArray>
				<DataArray type="Int32" Name="offsets" format="ascii">