<?xml version="1.0"?>
<VTKFile type="PolyData" version="0.1" byte_order="LittleEndian" compressor="vtkZLibDataCompressor">
	<PolyData>
		<Piece NumberOfPoints="209" NumberOfVerts="0" NumberOfLines="0" NumberOfStrips="0" NumberOfPolys="414">
		<PointData Normals="Normals">
		<DataArray type="Float32" Name="Normals" NumberOfComponents="3" format="ascii">
			-0.190342  0.312682  0.930591
			-0.235468  0.681793  0.692613
			-0.286986  0.239912  0.927406
			-0.339058  0.369596  0.865123
			-0.376683 -0.228206  0.897793
			-0.117045  0.767032  0.630842
			-0.358076  0.700288  0.617558
			-0.699203  0.531663  0.477964
			-0.322616  0.684010  0.654254
			-0.592061  0.776894  0.214243
			-0.370162  0.727317  0.577918
			-0.423859  0.717574  0.552658
			-0.511300  0.749552  0.420409
			-0.606273  0.066708  0.792454
			-0.567335  0.399918  0.719858
			-0.688682  0.122002  0.714725
			-0.420718 -0.471325  0.775145
			-0.015655 -0.861307  0.507843
			-0.420140 -0.813128  0.402872
			 0.343454  0.722136  0.600465
			 0.104961  0.927979  0.357544
			 0.083080  0.806359  0.585562
			-0.377449  0.796960  0.471578
			-0.041034  0.988649  0.144529
			-0.701461  0.611007  0.366909
			-0.951868  0.286695  0.108409
			-0.897376  0.440622  0.023845
			-0.109816  0.606028  0.787827
			-0.506907  0.502785  0.700180
			-0.476394  0.683531  0.553023
			-0.999641 -0.026489 -0.003910
			-0.739999  0.078068  0.668062
			-0.541912 -0.402330  0.737877
			-0.877747 -0.479113  0.003394
			-0.696819 -0.636258  0.331087
			 0.138144 -0.497405  0.856449
			-0.312495 -0.656776  0.686288
			 0.260973 -0.838244  0.478791
			 0.144484 -0.823194  0.549069
			 0.775967  0.477453  0.412206
			 0.333924  0.901001  0.276932
			 0.545019  0.571206  0.613741
			 0.896668  0.063833  0.438077
			 0.332072  0.817192 -0.471089
			 0.264026  0.914119 -0.307697
			 0.395778  0.507949  0.765080
			 0.393095  0.655947  0.644368
			 0.541075  0.414732  0.731597
			-0.435640  0.896549  0.080112
			-0.086826  0.978438 -0.187404
			-0.375143  0.924795  0.063412
			 0.281799  0.771394 -0.570561
			 0.239880  0.850432 -0.468212
			-0.825912  0.514825 -0.229839
			-0.984515  0.141815  0.103050
			-0.971132 -0.204460 -0.122874
			-0.256326  0.132300  0.957493
			-0.461618  0.151685  0.874014
			 0.536092  0.167261  0.827423
			 0.229309  0.069880  0.970842
			-0.666570  0.060777  0.742961
			-0.065474 -0.087386  0.994021
			 0.204044 -0.322999  0.924142
			-0.787784 -0.613262 -0.057502
			-0.934812 -0.340436 -0.101144
			-0.653847 -0.755028  0.049164
			 0.287804 -0.650985  0.702415
			-0.053670 -0.566310  0.822443
			-0.385480 -0.892192  0.235370
			 0.279648 -0.932969  0.226639
			 0.526441 -0.849534 -0.033952
			 0.584203 -0.778939  0.227950
			 0.220648 -0.960084 -0.171912
			 0.220521 -0.911300  0.347710
			 0.659632 -0.452093  0.600414
			 0.580277 -0.320793  0.748579
			 0.647100  0.722927 -0.242152
			 0.941781  0.142122  0.304712
			 0.778635  0.106934  0.618298
			 0.703013 -0.360144  0.613244
			 0.920715 -0.204511  0.332353
			 0.960942 -0.094424  0.260145
			 0.993273  0.023494 -0.113387
			 0.718821  0.152956 -0.678160
			 0.368089  0.693095 -0.619782
			 0.424180  0.524818 -0.737996
			 0.385707  0.481261 -0.787158
			 0.326577  0.454017 -0.828985
			 0.274513  0.760692 -0.588209
			 0.356794  0.776730 -0.519027
			 0.291285  0.799556 -0.525226
			 0.706170  0.002306  0.708039
			 0.678117 -0.025609  0.734507
			 0.752472  0.002061  0.658621
			-0.642256  0.762103 -0.081892
			-0.489692  0.812565 -0.316133
			 0.144207  0.464948 -0.873514
			 0.434957  0.289348 -0.852696
			-0.754863  0.460366 -0.467166
			-0.638039  0.226052 -0.736075
			-0.950306  0.220877 -0.219391
			-0.930976  0.284731  0.228498
			-0.921257  0.318494  0.223264
			-0.915245  0.325453  0.237502
			-0.972176 -0.016974  0.233637
			-0.824859 -0.564503 -0.030741
			-0.865668 -0.447194  0.225025
			-0.804072 -0.591708  0.057876
			 0.736725 -0.207899  0.643440
			 0.611828 -0.096976  0.785023
			 0.726612 -0.146467  0.671254
			-0.558048 -0.804384 -0.203838
			-0.689365 -0.711447 -0.136450
			-0.809153 -0.573103 -0.129714
			-0.572725 -0.808414 -0.135841
			 0.026732 -0.992461  0.119613
			-0.264852 -0.950868  0.160323
			-0.076094 -0.818947 -0.568802
			 0.000296 -0.995444 -0.095349
			 0.010693 -0.989409 -0.144760
			-0.092711 -0.926559 -0.364544
			 0.295631 -0.749691 -0.592086
			 0.280256 -0.736338 -0.615843
			 0.257728 -0.647701 -0.716980
			 0.423250 -0.671653 -0.608064
			 0.821947 -0.450422 -0.348601
			 0.681794 -0.091699 -0.725774
			 0.329315 -0.629858 -0.703442
			 0.566159 -0.787632  0.243103
			 0.106298 -0.504292 -0.856966
			 0.568382 -0.411410 -0.712519
			 0.325884  0.520282 -0.789370
			 0.623481  0.346346 -0.700939
			 0.981659  0.177397 -0.069828
			 0.778708 -0.172811  0.603117
			 0.851446 -0.271510 -0.448689
			 0.390647  0.311018 -0.866408
			 0.364507  0.244078 -0.898644
			 0.363588  0.535978 -0.761926
			 0.344990  0.502959 -0.792474
			-0.630893  0.546621 -0.550618
			 0.478302  0.277094 -0.833334
			 0.174294  0.258276 -0.950218
			 0.435375  0.223921 -0.871956
			-0.385018  0.422431 -0.820557
			-0.047109  0.212427 -0.976041
			-0.275027  0.285805 -0.917974
			-0.798105  0.093968 -0.595146
			-0.962078 -0.057711 -0.266601
			-0.997336 -0.030886  0.066077
			-0.971889  0.141973  0.187820
			-0.564056  0.248310 -0.787517
			-0.953762  0.137709  0.267160
			-0.907473 -0.205654  0.366333
			-0.607342 -0.791787  0.064870
			-0.701819 -0.647168  0.297697
			-0.335552 -0.940037 -0.061123
			-0.359982 -0.879807 -0.310406
			-0.126517 -0.981573 -0.143209
			-0.364292 -0.822679 -0.436453
			-0.059635 -0.733591 -0.676970
			-0.342859 -0.793203 -0.503266
			-0.276068 -0.769517 -0.575873
			 0.053872 -0.784977 -0.617178
			 0.481921 -0.026621 -0.875810
			 0.439117  0.114215 -0.891140
			 0.260083  0.239571 -0.935394
			 0.056281  0.189452 -0.980276
			-0.225967  0.177193 -0.957884
			-0.479811  0.092984 -0.872431
			-0.709619 -0.436308 -0.553242
			-0.859999 -0.185165 -0.475516
			-0.745923 -0.664735 -0.041541
			-0.744385 -0.637462  0.198829
			-0.347555 -0.865013  0.361882
			-0.297909 -0.865342  0.403031
			-0.341462 -0.883515  0.320632
			-0.354153 -0.874619  0.331085
			-0.281263 -0.930267  0.235573
			-0.258614 -0.875576 -0.408027
			-0.240636 -0.906294 -0.347456
			-0.295182 -0.850243 -0.435838
			-0.114483 -0.974384 -0.193570
			 0.025783 -0.997979  0.058073
			 0.139596 -0.959380 -0.245159
			 0.271546 -0.796279 -0.540558
			 0.418399 -0.306102 -0.855128
			 0.208703  0.049559 -0.976723
			 0.255404  0.189473 -0.948087
			 0.302769 -0.221825 -0.926890
			 0.210778  0.098386 -0.972570
			-0.086126 -0.433752 -0.896907
			-0.336601 -0.934371  0.116836
			-0.274203 -0.907121  0.319288
			-0.390376 -0.778779  0.491030
			-0.383115 -0.772936  0.505760
			-0.487147 -0.814176  0.315918
			-0.292008 -0.846649  0.444879
			-0.090515 -0.923815  0.371985
			-0.137132 -0.898042  0.417991
			-0.206032 -0.869403  0.449098
			-0.302510 -0.796789  0.523082
			-0.078263 -0.978859  0.188968
			 0.056781 -0.955761 -0.288612
			-0.134428 -0.961640  0.239118
			-0.346982 -0.853783  0.388146
			-0.063628 -0.975230  0.211846
			-0.113986 -0.926562  0.358456
			-0.050472 -0.980544  0.189702
		</DataArray>
	</PointData>
	<Points>
		<DataArray type="Float32" NumberOfComponents="3" format="ascii">
			 0.074430  0.019363  0.019452
			 0.074154  0.021671  0.017899
			 0.070655  0.019415  0.018655
			 0.077859  0.019170  0.020212
			 0.077438  0.015683  0.020352
			 0.078460  0.025545  0.014573
			 0.071254  0.026078  0.010773
			 0.070148  0.020244  0.018123
			 0.079464  0.020073  0.020250
			 0.070766  0.020792  0.017634
			 0.071623  0.024684  0.012633
			 0.070593  0.022071  0.015516
			 0.071137  0.021341  0.016938
			 0.069415  0.017819  0.018086
			 0.078919  0.018822  0.021112
			 0.079821  0.018545  0.022099
			 0.069740  0.015007  0.018156
			 0.080613  0.014543  0.019121
			 0.081651  0.014850  0.021457
			 0.090660  0.024559  0.015306
			 0.086717  0.025849  0.013670
			 0.087671  0.022689  0.018906
			 0.071103  0.026857  0.009889
			 0.077838  0.028142  0.011454
			 0.068967  0.025406  0.010002
			 0.069381  0.018294  0.017846
			 0.070007  0.019700  0.017544
			 0.082906  0.019565  0.023404
			 0.081247  0.018795  0.023272
			 0.070032  0.023036  0.013833
			 0.068871  0.016189  0.017550
			 0.080326  0.018428  0.022667
			 0.082006  0.015574  0.023205
			 0.069880  0.014027  0.017118
			 0.070433  0.013289  0.017256
			 0.079034  0.011716  0.017014
			 0.072415  0.011054  0.016463
			 0.084694  0.013257  0.014305
			 0.083179  0.014510  0.022760
			 0.091123  0.024893  0.014448
			 0.090679  0.025566  0.014053
			 0.090334  0.023751  0.016367
			 0.091026  0.024169  0.015192
			 0.080801  0.027533  0.010424
			 0.086797  0.025914  0.012480
			 0.085703  0.020781  0.021662
			 0.089248  0.023151  0.017771
			 0.088495  0.022292  0.018945
			 0.071681  0.027245  0.009187
			 0.072380  0.027617  0.007116
			 0.072178  0.027495  0.008344
			 0.073919  0.027087  0.006081
			 0.077347  0.027523  0.008457
			 0.068859  0.025530  0.007892
			 0.069256  0.017116  0.006303
			 0.069605  0.015860  0.016474
			 0.081771  0.018221  0.023746
			 0.081187  0.018300  0.023444
			 0.084128  0.019306  0.023253
			 0.083270  0.018567  0.023697
			 0.080685  0.018330  0.023079
			 0.082214  0.017965  0.023840
			 0.082901  0.015215  0.023222
			 0.070677  0.012657  0.015735
			 0.070289  0.013478  0.015940
			 0.072367  0.011002  0.015967
			 0.079350  0.009399  0.015697
			 0.075277  0.010315  0.016351
			 0.075178  0.009526  0.015610
			 0.083829  0.008336  0.010746
			 0.085785  0.008776  0.009410
			 0.088408  0.012145  0.010720
			 0.090028  0.012804  0.011315
			 0.085975  0.013900  0.018049
			 0.086520  0.015306  0.019054
			 0.083636  0.014952  0.022636
			 0.091240  0.025247  0.013486
			 0.091335  0.024190  0.014400
			 0.089499  0.022708  0.017849
			 0.089316  0.013718  0.015886
			 0.091071  0.013469  0.013374
			 0.091488  0.023444  0.013611
			 0.091563  0.022075  0.012812
			 0.091544  0.017590  0.011722
			 0.083413  0.026629  0.010903
			 0.077144  0.027162  0.008001
			 0.080967  0.026654  0.009877
			 0.083598  0.026110  0.010651
			 0.088817  0.025383  0.012502
			 0.085721  0.025910  0.011596
			 0.087281  0.025501  0.011977
			 0.087237  0.020949  0.020439
			 0.085662  0.020125  0.021892
			 0.088411  0.021687  0.019150
			 0.070423  0.026430  0.007219
			 0.071148  0.027055  0.005995
			 0.072921  0.027006  0.005530
			 0.074439  0.026620  0.006162
			 0.070461  0.025974  0.005777
			 0.070392  0.022822  0.004703
			 0.068605  0.016633  0.004607
			 0.068823  0.015608  0.006464
			 0.069047  0.015572  0.007392
			 0.069243  0.015567  0.008251
			 0.069578  0.014871  0.010312
			 0.070395  0.013560  0.013492
			 0.069868  0.013987  0.010547
			 0.070167  0.013779  0.012017
			 0.087143  0.020204  0.020233
			 0.084157  0.018367  0.023395
			 0.085553  0.018864  0.021759
			 0.073771  0.010757  0.012416
			 0.071536  0.011796  0.015644
			 0.070496  0.013158  0.014698
			 0.072462  0.010991  0.015432
			 0.079131  0.008058  0.013490
			 0.077594  0.008291  0.014751
			 0.084134  0.008453  0.008091
			 0.081722  0.008126  0.010390
			 0.082849  0.008221  0.009634
			 0.083428  0.008405  0.008468
			 0.084512  0.008871  0.007687
			 0.084785  0.009281  0.007358
			 0.085051  0.010260  0.006244
			 0.086410  0.009399  0.007247
			 0.087622  0.010802  0.007453
			 0.088845  0.012698  0.009040
			 0.091219  0.013101  0.010884
			 0.090871  0.012991  0.013289
			 0.090733  0.013217  0.010955
			 0.090122  0.013640  0.009971
			 0.090022  0.025021  0.012705
			 0.091095  0.024958  0.013047
			 0.091522  0.024554  0.013555
			 0.088443  0.020838  0.018910
			 0.091465  0.013713  0.010962
			 0.083451  0.024559  0.009970
			 0.087534  0.023857  0.011263
			 0.087560  0.025123  0.011660
			 0.086010  0.025508  0.011255
			 0.070704  0.026597  0.006089
			 0.073764  0.024934  0.005503
			 0.072745  0.024860  0.004887
			 0.074705  0.025018  0.006065
			 0.070938  0.025941  0.005243
			 0.071747  0.024671  0.004865
			 0.070460  0.019185  0.003546
			 0.069054  0.013230  0.002865
			 0.068407  0.013054  0.004025
			 0.068233  0.013485  0.005788
			 0.068310  0.014064  0.005883
			 0.069902  0.014082  0.002268
			 0.068867  0.014500  0.008357
			 0.069331  0.014222  0.009381
			 0.070867  0.013075  0.010842
			 0.068453  0.013278  0.006592
			 0.072198  0.012489  0.009139
			 0.078426  0.010132  0.009794
			 0.080525  0.008063  0.011216
			 0.080234  0.008343  0.010385
			 0.083871  0.009304  0.007221
			 0.081377  0.009558  0.008075
			 0.082659  0.009407  0.007597
			 0.083075  0.011140  0.005107
			 0.086589  0.010940  0.006758
			 0.080853  0.011855  0.004053
			 0.075697  0.014658  0.002713
			 0.072204  0.013552  0.001591
			 0.070922  0.013644  0.001810
			 0.069714  0.012784  0.002015
			 0.069748  0.011859  0.002029
			 0.069069  0.012677  0.002846
			 0.068384  0.012652  0.004485
			 0.068330  0.012977  0.005527
			 0.071034  0.012897  0.007167
			 0.069544  0.013043  0.006666
			 0.069632  0.012561  0.005291
			 0.072452  0.012265  0.007519
			 0.074683  0.011648  0.007789
			 0.078706  0.010534  0.007938
			 0.076846  0.011066  0.007967
			 0.079991  0.010078  0.008024
			 0.078487  0.010952  0.007321
			 0.078133  0.010622  0.005652
			 0.079023  0.010875  0.004364
			 0.078810  0.011045  0.003831
			 0.078823  0.011534  0.003186
			 0.074549  0.012772  0.002024
			 0.075751  0.012821  0.002337
			 0.077016  0.011267  0.002388
			 0.073171  0.013192  0.001754
			 0.071760  0.011097  0.001518
			 0.071291  0.011036  0.002618
			 0.068967  0.012575  0.004905
			 0.071607  0.011747  0.006049
			 0.071993  0.012259  0.007187
			 0.070780  0.011909  0.005433
			 0.073148  0.011997  0.007447
			 0.077980  0.011099  0.007726
			 0.075041  0.011350  0.007259
			 0.074167  0.011288  0.006843
			 0.073214  0.011490  0.006703
			 0.077591  0.010849  0.006573
			 0.074461  0.010592  0.002297
			 0.073711  0.010932  0.005962
			 0.071978  0.011336  0.005748
			 0.076789  0.010957  0.006953
			 0.075202  0.011060  0.006683
			 0.075501  0.010878  0.006197
		</DataArray>
	</Points>
			<Polys>
				<DataArray type="Int32" Name="connectivity" format="ascii">
					0 1 2 
					3 1 0 
					4 3 0 
					4 0 2 
					1 5 6 
					1 7 2 
					8 1 3 
					7 1 9 
					1 8 5 
					1 6 10 
					11 12 1 
					11 1 10 
					9 1 12 
					7 13 2 
					4 2 13 
					8 3 14 
					3 4 14 
					14 4 15 
					16 4 13 
					17 4 16 
					18 4 17 
					18 15 4 
					19 20 5 
					5 8 21 
					6 5 22 
					5 21 19 
					20 23 5 
					23 22 5 
					6 22 24 
					24 10 6 
					25 13 7 
					26 25 7 
					7 9 26 
					8 27 21 
					8 14 15 
					28 27 8 
					28 8 15 
					9 12 26 
					29 11 10 
					24 29 10 
					26 11 29 
					26 12 11 
					30 16 13 
					25 30 13 
					31 28 15 
					18 32 15 
					15 32 31 
					16 33 34 
					35 16 36 
					17 16 35 
					33 16 30 
					34 36 16 
					35 37 17 
					37 18 17 
					38 18 37 
					32 18 38 
					19 39 40 
					41 19 21 
					40 20 19 
					41 42 19 
					19 42 39 
					43 23 20 
					43 20 44 
					20 40 44 
					45 21 27 
					41 21 46 
					46 21 47 
					47 21 45 
					22 23 48 
					48 24 22 
					49 50 23 
					23 50 48 
					49 23 51 
					52 51 23 
					52 23 43 
					53 24 48 
					29 24 26 
					26 24 54 
					53 54 24 
					26 30 25 
					30 26 55 
					26 54 55 
					56 27 57 
					27 28 57 
					27 58 45 
					59 58 27 
					56 59 27 
					57 28 60 
					60 28 31 
					30 55 33 
					32 60 31 
					32 61 56 
					32 56 57 
					32 57 60 
					62 32 38 
					62 61 32 
					63 33 64 
					34 33 65 
					63 65 33 
					64 33 55 
					34 65 36 
					66 35 67 
					66 37 35 
					35 36 67 
					36 68 67 
					36 65 68 
					69 70 37 
					71 37 70 
					72 37 71 
					73 37 72 
					66 69 37 
					73 38 37 
					74 75 38 
					73 74 38 
					62 38 75 
					76 40 39 
					77 76 39 
					42 77 39 
					40 76 44 
					41 78 42 
					46 78 41 
					78 79 42 
					80 42 79 
					77 42 81 
					42 82 81 
					83 82 42 
					80 83 42 
					84 43 44 
					85 52 43 
					86 43 87 
					43 84 87 
					86 85 43 
					88 44 76 
					89 44 90 
					84 44 89 
					90 44 88 
					45 91 47 
					58 92 45 
					92 91 45 
					47 78 46 
					47 93 78 
					91 93 47 
					48 50 94 
					48 94 53 
					95 49 96 
					49 51 96 
					95 50 49 
					94 50 95 
					97 96 51 
					85 51 52 
					97 51 85 
					53 94 98 
					53 98 99 
					54 53 99 
					54 100 101 
					101 102 54 
					54 102 103 
					54 104 55 
					104 54 103 
					100 54 99 
					64 55 105 
					106 107 55 
					107 105 55 
					104 106 55 
					56 61 59 
					92 58 108 
					58 59 109 
					58 109 110 
					58 110 108 
					62 59 61 
					75 59 62 
					75 109 59 
					63 111 112 
					111 63 113 
					113 63 64 
					63 112 65 
					105 113 64 
					65 114 68 
					112 114 65 
					66 115 69 
					67 116 66 
					116 115 66 
					68 116 67 
					111 68 114 
					116 68 111 
					70 69 117 
					118 69 115 
					119 69 118 
					120 117 69 
					120 69 119 
					121 70 117 
					122 123 70 
					122 70 121 
					70 123 124 
					71 70 125 
					70 124 125 
					126 72 71 
					126 71 125 
					127 128 72 
					73 72 128 
					127 72 129 
					130 72 126 
					129 72 130 
					73 79 74 
					128 79 73 
					110 109 74 
					79 110 74 
					75 74 109 
					131 88 76 
					131 76 132 
					76 77 133 
					132 76 133 
					81 133 77 
					134 79 78 
					93 134 78 
					108 110 79 
					108 79 134 
					128 80 79 
					135 80 128 
					83 80 135 
					81 82 133 
					82 83 132 
					82 132 133 
					126 83 130 
					126 136 83 
					130 83 135 
					131 132 83 
					136 137 83 
					83 138 131 
					138 83 137 
					87 84 139 
					139 84 89 
					97 85 136 
					85 86 136 
					86 87 136 
					87 139 136 
					138 90 88 
					138 88 131 
					139 89 138 
					89 90 138 
					91 92 108 
					93 91 134 
					91 108 134 
					98 94 140 
					94 95 140 
					140 95 96 
					141 142 96 
					143 96 97 
					144 96 145 
					96 142 145 
					141 96 143 
					144 140 96 
					143 97 136 
					144 99 98 
					144 98 140 
					145 99 144 
					99 142 146 
					142 99 145 
					146 100 99 
					147 148 100 
					149 100 148 
					100 150 101 
					100 149 150 
					151 100 146 
					147 100 151 
					101 150 152 
					101 152 102 
					102 152 103 
					104 103 152 
					104 152 153 
					104 153 106 
					107 154 105 
					105 111 113 
					154 111 105 
					155 106 153 
					106 154 107 
					154 106 155 
					112 111 114 
					154 156 111 
					157 111 156 
					157 116 111 
					118 115 158 
					159 115 116 
					158 115 159 
					157 159 116 
					160 121 117 
					117 120 159 
					161 117 159 
					117 162 160 
					117 161 162 
					159 118 158 
					119 118 159 
					159 120 119 
					122 121 160 
					123 122 163 
					122 160 163 
					123 164 124 
					164 123 163 
					125 124 164 
					164 126 125 
					165 136 126 
					164 165 126 
					127 135 128 
					127 129 135 
					135 129 130 
					136 139 137 
					165 143 136 
					139 138 137 
					165 142 141 
					165 141 143 
					142 165 166 
					142 166 146 
					167 146 166 
					168 151 146 
					168 146 167 
					169 170 147 
					170 171 147 
					171 148 147 
					169 147 151 
					172 148 171 
					173 148 172 
					149 148 173 
					149 155 150 
					155 149 173 
					150 155 152 
					169 151 168 
					153 152 155 
					154 155 156 
					174 155 175 
					155 174 156 
					173 176 155 
					175 155 176 
					156 177 178 
					156 174 177 
					157 156 178 
					161 159 157 
					179 157 180 
					157 179 181 
					157 181 161 
					157 178 180 
					163 160 162 
					161 181 162 
					181 163 162 
					179 182 163 
					163 182 183 
					163 183 184 
					179 163 181 
					164 163 165 
					185 165 163 
					185 163 184 
					185 186 165 
					166 165 186 
					187 166 188 
					166 186 189 
					190 166 187 
					189 188 166 
					167 166 190 
					191 167 190 
					191 168 167 
					191 169 168 
					169 191 170 
					170 191 192 
					170 192 172 
					170 172 171 
					193 172 192 
					172 193 173 
					193 176 173 
					175 194 174 
					174 195 177 
					194 195 174 
					175 176 194 
					176 193 192 
					196 176 192 
					176 196 194 
					177 197 178 
					177 195 197 
					182 180 178 
					198 182 178 
					199 198 178 
					200 199 178 
					201 200 178 
					194 201 178 
					197 194 178 
					182 179 180 
					202 183 182 
					202 182 198 
					184 183 203 
					203 183 202 
					203 185 184 
					203 189 185 
					189 186 185 
					191 187 203 
					203 187 189 
					187 188 189 
					190 187 191 
					204 192 191 
					203 204 191 
					192 204 205 
					196 192 205 
					196 205 194 
					194 205 201 
					195 194 197 
					202 198 206 
					206 198 207 
					207 198 199 
					204 207 199 
					204 199 200 
					205 204 200 
					205 200 201 
					203 202 206 
					208 204 203 
					203 206 208 
					208 207 204 
					206 207 208 
				</DataArray>
				<DataArray type="Int32" Name="offsets" format="ascii">
					3 6 9 12 15 18 21 24 27 30 33 36 39 42 45 48 51 54 57 60 63 66 69 72 75 78 81 84 87 90 93 96 99 102 105 108 111 114 117 120 123 126 129 132 135 138 141 144 147 150 153 156 159 162 165 168 171 174 177 180 183 186 189 192 195 198 201 204 207 210 213 216 219 222 225 228 231 234 237 240 243 246 249 252 255 258 261 264 267 270 273 276 279 282 285 288 291 294 297 300 303 306 309 312 315 318 321 324 327 330 333 336 339 342 345 348 351 354 357 360 363 366 369 372 375 378 381 384 387 390 393 396 399 402 405 408 411 414 417 420 423 426 429 432 435 438 441 444 447 450 453 456 459 462 465 468 471 474 477 480 483 486 489 492 495 498 501 504 507 510 513 516 519 522 525 528 531 534 537 540 543 546 549 552 555 558 561 564 567 570 573 576 579 582 585 588 591 594 597 600 603 606 609 612 615 618 621 624 627 630 633 636 639 642 645 648 651 654 657 660 663 666 669 672 675 678 681 684 687 690 693 696 699 702 705 708 711 714 717 720 723 726 729 732 735 738 741 744 747 750 753 756 759 762 765 768 771 774 777 780 783 786 789 792 795 798 801 804 807 810 813 816 819 822 825 828 831 834 837 840 843 846 849 852 855 858 861 864 867 870 873 876 879 882 885 888 891 894 897 900 903 906 909 912 915 918 921 924 927 930 933 936 939 942 945 948 951 954 957 960 963 966 969 972 975 978 981 984 987 990 993 996 999 1002 1005 1008 1011 1014 1017 1020 1023 1026 1029 1032 1035 1038 1041 1044 1047 1050 1053 1056 1059 1062 1065 1068 1071 1074 1077 1080 1083 1086 1089 1092 1095 1098 1101 1104 1107 1110 1113 1116 1119 1122 1125 1128 1131 1134 1137 1140 1143 1146 1149 1152 1155 1158 1161 1164 1167 1170 1173 1176 1179 1182 1185 1188 1191 1194 1197 1200 1203 1206 1209 1212 1215 1218 1221 1224 1227 1230 1233 1236 1239 1242 
				</DataArray>
			</Polys>
		</Piece>
	</PolyData>
</VTKFile>
