<?xml version="1.0"?>
<VTKFile type="PolyData" version="0.1" byte_order="LittleEndian" compressor="vtkZLibDataCompressor">
  <PolyData>
    <Piece NumberOfPoints="80" NumberOfVerts="0" NumberOfLines="0" NumberOfStrips="0" NumberOfPolys="22">
      <PointData Normals="Normals" TCoords="TCoords">
        <DataArray type="Float32" Name="Normals" NumberOfComponents="3" format="ascii" RangeMin="1" RangeMax="1.0000000251">
          1 0 0 1 0 0
          0.95105654001 0 -0.30901700258 0.95105654001 0 -0.30901700258
          0.80901700258 0 -0.58778524399 0.80901700258 0 -0.58778524399
          0.58778524399 0 -0.80901700258 0.58778524399 0 -0.80901700258
          0.30901700258 0 -0.95105654001 0.30901700258 0 -0.95105654001
          -2.0510343424e-010 0 -1 -2.0510343424e-010 0 -1
          -0.30901700258 0 -0.95105654001 -0.30901700258 0 -0.95105654001
          -0.58778524399 0 -0.80901700258 -0.58778524399 0 -0.80901700258
          -0.80901700258 0 -0.58778524399 -0.80901700258 0 -0.58778524399
          -0.95105654001 0 -0.30901700258 -0.95105654001 0 -0.30901700258
          -1 0 4.1020686847e-010 -1 0 4.1020686847e-010
          -0.95105654001 0 0.30901700258 -0.95105654001 0 0.30901700258
          -0.80901700258 0 0.58778524399 -0.80901700258 0 0.58778524399
          -0.58778524399 0 0.80901700258 -0.58778524399 0 0.80901700258
          -0.30901700258 0 0.95105654001 -0.30901700258 0 0.95105654001
          6.1531030271e-010 0 1 6.1531030271e-010 0 1
          0.30901700258 0 0.95105654001 0.30901700258 0 0.95105654001
          0.58778524399 0 0.80901700258 0.58778524399 0 0.80901700258
          0.80901700258 0 0.58778524399 0.80901700258 0 0.58778524399
          0.95105654001 0 0.30901700258 0.95105654001 0 0.30901700258
          0 1 0 0 1 0
          0 1 0 0 1 0
          0 1 0 0 1 0
          0 1 0 0 1 0
          0 1 0 0 1 0
          0 1 0 0 1 0
          0 1 0 0 1 0
          0 1 0 0 1 0
          0 1 0 0 1 0
          0 1 0 0 1 0
          0 -1 0 0 -1 0
          0 -1 0 0 -1 0
          0 -1 0 0 -1 0
          0 -1 0 0 -1 0
          0 -1 0 0 -1 0
          0 -1 0 0 -1 0
          0 -1 0 0 -1 0
          0 -1 0 0 -1 0
          0 -1 0 0 -1 0
          0 -1 0 0 -1 0
        </DataArray>
        <DataArray type="Float32" Name="TCoords" NumberOfComponents="2" format="ascii" RangeMin="0" RangeMax="1.4142135624">
          1 0 1 1 0.89999997616 0
          0.89999997616 1 0.80000001192 0 0.80000001192 1
          0.69999998808 0 0.69999998808 1 0.60000002384 0
          0.60000002384 1 0.5 0 0.5 1
          0.40000000596 0 0.40000000596 1 0.30000001192 0
          0.30000001192 1 0.20000000298 0 0.20000000298 1
          0.10000000149 0 0.10000000149 1 0 0
          0 1 0.10000000149 0 0.10000000149 1
          0.20000000298 0 0.20000000298 1 0.30000001192 0
          0.30000001192 1 0.40000000596 0 0.40000000596 1
          0.5 0 0.5 1 0.60000002384 0
          0.60000002384 1 0.69999998808 0 0.69999998808 1
          0.80000001192 0 0.80000001192 1 0.89999997616 0
          0.89999997616 1 0.5 0 0.47552827001 -0.15450850129
          0.40450850129 -0.29389262199 0.29389262199 -0.40450850129 0.15450850129 -0.47552827001
          -1.0255171712e-010 -0.5 -0.15450850129 -0.47552827001 -0.29389262199 -0.40450850129
          -0.40450850129 -0.29389262199 -0.47552827001 -0.15450850129 -0.5 2.0510343424e-010
          -0.47552827001 0.15450850129 -0.40450850129 0.29389262199 -0.29389262199 0.40450850129
          -0.15450850129 0.47552827001 3.0765515135e-010 0.5 0.15450850129 0.47552827001
          0.29389262199 0.40450850129 0.40450850129 0.29389262199 0.47552827001 0.15450850129
          0.47552827001 0.15450850129 0.40450850129 0.29389262199 0.29389262199 0.40450850129
          0.15450850129 0.47552827001 3.0765515135e-010 0.5 -0.15450850129 0.47552827001
          -0.29389262199 0.40450850129 -0.40450850129 0.29389262199 -0.47552827001 0.15450850129
          -0.5 2.0510343424e-010 -0.47552827001 -0.15450850129 -0.40450850129 -0.29389262199
          -0.29389262199 -0.40450850129 -0.15450850129 -0.47552827001 -1.0255171712e-010 -0.5
          0.15450850129 -0.47552827001 0.29389262199 -0.40450850129 0.40450850129 -0.29389262199
          0.47552827001 -0.15450850129 0.5 0
        </DataArray>
      </PointData>
      <CellData>
      </CellData>
      <Points>
        <DataArray type="Float32" Name="Array 105E75C8" NumberOfComponents="3" format="ascii" RangeMin="0.70710678119" RangeMax="0.70710679006">
          0.5 0.5 0 0.5 -0.5 0
          0.47552827001 0.5 -0.15450850129 0.47552827001 -0.5 -0.15450850129
          0.40450850129 0.5 -0.29389262199 0.40450850129 -0.5 -0.29389262199
          0.29389262199 0.5 -0.40450850129 0.29389262199 -0.5 -0.40450850129
          0.15450850129 0.5 -0.47552827001 0.15450850129 -0.5 -0.47552827001
          -1.0255171712e-010 0.5 -0.5 -1.0255171712e-010 -0.5 -0.5
          -0.15450850129 0.5 -0.47552827001 -0.15450850129 -0.5 -0.47552827001
          -0.29389262199 0.5 -0.40450850129 -0.29389262199 -0.5 -0.40450850129
          -0.40450850129 0.5 -0.29389262199 -0.40450850129 -0.5 -0.29389262199
          -0.47552827001 0.5 -0.15450850129 -0.47552827001 -0.5 -0.15450850129
          -0.5 0.5 2.0510343424e-010 -0.5 -0.5 2.0510343424e-010
          -0.47552827001 0.5 0.15450850129 -0.47552827001 -0.5 0.15450850129
          -0.40450850129 0.5 0.29389262199 -0.40450850129 -0.5 0.29389262199
          -0.29389262199 0.5 0.40450850129 -0.29389262199 -0.5 0.40450850129
          -0.15450850129 0.5 0.47552827001 -0.15450850129 -0.5 0.47552827001
          3.0765515135e-010 0.5 0.5 3.0765515135e-010 -0.5 0.5
          0.15450850129 0.5 0.47552827001 0.15450850129 -0.5 0.47552827001
          0.29389262199 0.5 0.40450850129 0.29389262199 -0.5 0.40450850129
          0.40450850129 0.5 0.29389262199 0.40450850129 -0.5 0.29389262199
          0.47552827001 0.5 0.15450850129 0.47552827001 -0.5 0.15450850129
          0.5 0.5 0 0.47552827001 0.5 -0.15450850129
          0.40450850129 0.5 -0.29389262199 0.29389262199 0.5 -0.40450850129
          0.15450850129 0.5 -0.47552827001 -1.0255171712e-010 0.5 -0.5
          -0.15450850129 0.5 -0.47552827001 -0.29389262199 0.5 -0.40450850129
          -0.40450850129 0.5 -0.29389262199 -0.47552827001 0.5 -0.15450850129
          -0.5 0.5 2.0510343424e-010 -0.47552827001 0.5 0.15450850129
          -0.40450850129 0.5 0.29389262199 -0.29389262199 0.5 0.40450850129
          -0.15450850129 0.5 0.47552827001 3.0765515135e-010 0.5 0.5
          0.15450850129 0.5 0.47552827001 0.29389262199 0.5 0.40450850129
          0.40450850129 0.5 0.29389262199 0.47552827001 0.5 0.15450850129
          0.47552827001 -0.5 0.15450850129 0.40450850129 -0.5 0.29389262199
          0.29389262199 -0.5 0.40450850129 0.15450850129 -0.5 0.47552827001
          3.0765515135e-010 -0.5 0.5 -0.15450850129 -0.5 0.47552827001
          -0.29389262199 -0.5 0.40450850129 -0.40450850129 -0.5 0.29389262199
          -0.47552827001 -0.5 0.15450850129 -0.5 -0.5 2.0510343424e-010
          -0.47552827001 -0.5 -0.15450850129 -0.40450850129 -0.5 -0.29389262199
          -0.29389262199 -0.5 -0.40450850129 -0.15450850129 -0.5 -0.47552827001
          -1.0255171712e-010 -0.5 -0.5 0.15450850129 -0.5 -0.47552827001
          0.29389262199 -0.5 -0.40450850129 0.40450850129 -0.5 -0.29389262199
          0.47552827001 -0.5 -0.15450850129 0.5 -0.5 0
        </DataArray>
      </Points>
      <Verts>
        <DataArray type="Int32" Name="connectivity" format="ascii" RangeMin="1e+299" RangeMax="-1e+299">
        </DataArray>
        <DataArray type="Int32" Name="offsets" format="ascii" RangeMin="1e+299" RangeMax="-1e+299">
        </DataArray>
      </Verts>
      <Lines>
        <DataArray type="Int32" Name="connectivity" format="ascii" RangeMin="1e+299" RangeMax="-1e+299">
        </DataArray>
        <DataArray type="Int32" Name="offsets" format="ascii" RangeMin="1e+299" RangeMax="-1e+299">
        </DataArray>
      </Lines>
      <Strips>
        <DataArray type="Int32" Name="connectivity" format="ascii" RangeMin="1e+299" RangeMax="-1e+299">
        </DataArray>
        <DataArray type="Int32" Name="offsets" format="ascii" RangeMin="1e+299" RangeMax="-1e+299">
        </DataArray>
      </Strips>
      <Polys>
        <DataArray type="Int32" Name="connectivity" format="ascii" RangeMin="1e+299" RangeMax="-1e+299">
          0 1 3 2 2 3
          5 4 4 5 7 6
          6 7 9 8 8 9
          11 10 10 11 13 12
          12 13 15 14 14 15
          17 16 16 17 19 18
          18 19 21 20 20 21
          23 22 22 23 25 24
          24 25 27 26 26 27
          29 28 28 29 31 30
          30 31 33 32 32 33
          35 34 34 35 37 36
          36 37 39 38 38 39
          1 0 40 41 42 43
          44 45 46 47 48 49
          50 51 52 53 54 55
          56 57 58 59 60 61
          62 63 64 65 66 67
          68 69 70 71 72 73
          74 75 76 77 78 79
        </DataArray>
        <DataArray type="Int32" Name="offsets" format="ascii" RangeMin="1e+299" RangeMax="-1e+299">
          4 8 12 16 20 24
          28 32 36 40 44 48
          52 56 60 64 68 72
          76 80 100 120
        </DataArray>
      </Polys>
    </Piece>
  </PolyData>
</VTKFile>
