<?xml version="1.0"?>
<VTKFile type="PolyData" version="0.1" byte_order="LittleEndian" compressor="vtkZLibDataCompressor">
	<PolyData>
		<Piece NumberOfPoints="103" NumberOfVerts="0" NumberOfLines="0" NumberOfStrips="0" NumberOfPolys="202">
		<PointData Normals="Normals">
		<DataArray type="Float32" Name="Normals" NumberOfComponents="3" format="ascii">
			 0.314059  0.944791 -0.093469
			 0.239078  0.876285 -0.418289
			 0.378615  0.669531 -0.639045
			 0.288618  0.667631  0.686271
			 0.184041  0.779030  0.599368
			 0.523665  0.543265 -0.656230
			 0.098222  0.993684 -0.054269
			-0.604219  0.753970  0.257778
			 0.240329  0.768110 -0.593506
			 0.136756  0.984492 -0.109877
			 0.184408  0.623649 -0.759642
			 0.090824  0.990704 -0.101275
			 0.394169 -0.024369 -0.918715
			 0.174453 -0.189935 -0.966173
			-0.355780  0.628081  0.692051
			-0.925488  0.066379  0.372916
			-0.543709  0.106906  0.832437
			 0.223322 -0.088506  0.970718
			 0.156889  0.492919  0.855814
			 0.126176  0.204777  0.970642
			 0.652775  0.047224 -0.756078
			 0.488472  0.091254 -0.867795
			 0.476840  0.144614 -0.867013
			-0.994687 -0.093036  0.044059
			-0.944326  0.325543 -0.047644
			-0.416515  0.192237 -0.888572
			-0.296494  0.566130 -0.769148
			-0.086882  0.507609 -0.857196
			 0.373839  0.843923  0.384758
			 0.010762  0.691711  0.722094
			 0.180282  0.655296 -0.733543
			 0.455830  0.850236 -0.263283
			 0.126548 -0.908699 -0.397808
			 0.383435 -0.598850 -0.703105
			-0.021873 -0.977008  0.212077
			-0.059053 -0.865070 -0.498163
			 0.084590  0.146722 -0.985554
			-0.986410 -0.057485 -0.153921
			-0.762882 -0.606397 -0.224262
			-0.856332 -0.515524 -0.030516
			-0.672473 -0.421539  0.608346
			-0.963714 -0.109036 -0.243653
			 0.235439 -0.365675  0.900472
			 0.038068 -0.610773  0.790890
			 0.301534 -0.814757  0.495226
			 0.092254 -0.174466  0.980332
			 0.036493 -0.321038  0.946363
			 0.526865 -0.681405 -0.508036
			 0.594535 -0.372188 -0.712744
			 0.244518 -0.220687 -0.944197
			-0.965005  0.261921  0.012782
			-0.955741 -0.205650  0.210397
			-0.959948  0.278066  0.034331
			-0.903163  0.410186  0.126664
			-0.913757  0.270277  0.303313
			-0.959069  0.050878 -0.278564
			-0.407469 -0.201746 -0.890656
			-0.465096  0.162270 -0.870261
			-0.422700 -0.255731 -0.869440
			 0.086546  0.077613 -0.993220
			-0.116019  0.437253 -0.891824
			 0.139481 -0.109018  0.984205
			 0.796083 -0.046357  0.603409
			 0.946538  0.322467  0.008955
			 0.546706 -0.396955 -0.737251
			 0.793381  0.218224 -0.568265
			 0.261794 -0.945501 -0.193627
			-0.063520 -0.916201 -0.395652
			 0.153820 -0.863655 -0.480042
			 0.197720 -0.980011  0.022023
			 0.046714 -0.275333 -0.960213
			-0.793229 -0.289514 -0.535695
			-0.960330 -0.274089  0.051389
			-0.946867 -0.169673 -0.273230
			-0.806006 -0.492094  0.328935
			-0.952168 -0.120937 -0.280626
			-0.446792 -0.689166  0.570462
			-0.752416 -0.633347  0.180944
			-0.055494 -0.964308  0.258903
			 0.111023 -0.993791  0.007331
			 0.107656 -0.948787 -0.297008
			-0.232218 -0.693417 -0.682091
			-0.868893  0.273575  0.412531
			-0.886735  0.423660  0.184970
			-0.920252  0.386286 -0.062610
			-0.986652  0.067929  0.147996
			-0.989772  0.135342  0.045090
			-0.913259 -0.389703  0.118701
			-0.996421 -0.039377 -0.074794
			 0.404586 -0.814543  0.415728
			 0.744136 -0.665632 -0.056528
			-0.997373  0.025633  0.067746
			-0.896888  0.110209  0.428306
			-0.402343 -0.908210  0.115212
			-0.576870 -0.813255  0.076401
			-0.609724 -0.672119  0.420109
			-0.675037 -0.735878  0.052994
			-0.626979 -0.699772  0.342369
			-0.413829 -0.907409 -0.073170
			-0.687311 -0.684186 -0.243911
			-0.936785  0.079601  0.340732
			-0.928106  0.330848  0.170762
			-0.844826 -0.533551 -0.039905
		</DataArray>
	</PointData>
	<Points>
		<DataArray type="Float32" NumberOfComponents="3" format="ascii">
			 0.056696 -0.001421 -0.019612
			 0.065056 -0.002941 -0.017001
			 0.062665 -0.003389 -0.019254
			 0.053353 -0.001662 -0.011500
			 0.056924 -0.002611 -0.012808
			 0.058424 -0.003212 -0.021992
			 0.063285 -0.002607 -0.016628
			 0.050244 -0.000074 -0.015073
			 0.052751 -0.001115 -0.025903
			 0.053043 -0.000066 -0.021397
			 0.065300 -0.004616 -0.019096
			 0.068010 -0.002665 -0.015635
			 0.062563 -0.006126 -0.021242
			 0.064144 -0.006968 -0.020812
			 0.051970 -0.001442 -0.011624
			 0.052411 -0.002250 -0.011015
			 0.052290 -0.005748 -0.010472
			 0.056313 -0.006910 -0.011086
			 0.064102 -0.003966 -0.012931
			 0.059606 -0.004654 -0.012190
			 0.056744 -0.005197 -0.024229
			 0.058589 -0.005154 -0.022968
			 0.054077 -0.005485 -0.026735
			 0.052434 -0.004594 -0.019246
			 0.051439 -0.000654 -0.023975
			 0.051519 -0.003668 -0.026970
			 0.068001 -0.004920 -0.019380
			 0.067247 -0.006377 -0.019605
			 0.073076 -0.003784 -0.014165
			 0.067684 -0.003636 -0.013705
			 0.069744 -0.005020 -0.020018
			 0.073394 -0.003859 -0.016272
			 0.062159 -0.007091 -0.020463
			 0.058872 -0.007052 -0.022252
			 0.063055 -0.007363 -0.013204
			 0.065876 -0.007758 -0.020195
			 0.066325 -0.007289 -0.020345
			 0.051845 -0.006568 -0.011855
			 0.052041 -0.006627 -0.012708
			 0.052396 -0.006493 -0.014910
			 0.051854 -0.007199 -0.011074
			 0.051690 -0.007248 -0.011721
			 0.059936 -0.006829 -0.012341
			 0.054240 -0.008662 -0.011096
			 0.059868 -0.007680 -0.013082
			 0.063338 -0.005438 -0.012346
			 0.064971 -0.007200 -0.012520
			 0.056566 -0.006641 -0.024060
			 0.055194 -0.006760 -0.025955
			 0.053686 -0.006554 -0.026758
			 0.052354 -0.006813 -0.019337
			 0.052378 -0.006490 -0.016804
			 0.052263 -0.006440 -0.018044
			 0.051913 -0.007833 -0.021824
			 0.051225 -0.006904 -0.023889
			 0.051216 -0.006358 -0.026136
			 0.051812 -0.006224 -0.027127
			 0.067844 -0.006888 -0.020325
			 0.068144 -0.007022 -0.020799
			 0.069132 -0.006775 -0.020829
			 0.067148 -0.007019 -0.020180
			 0.070032 -0.005748 -0.011557
			 0.074493 -0.005370 -0.013537
			 0.075159 -0.005510 -0.016184
			 0.072172 -0.006979 -0.019626
			 0.074923 -0.005682 -0.017219
			 0.056892 -0.007803 -0.020839
			 0.068199 -0.007694 -0.020019
			 0.070040 -0.007529 -0.020151
			 0.072173 -0.007676 -0.017811
			 0.067360 -0.007683 -0.020299
			 0.052650 -0.007190 -0.012572
			 0.053273 -0.006802 -0.014630
			 0.053241 -0.006886 -0.013964
			 0.052905 -0.006835 -0.016285
			 0.052496 -0.007797 -0.012452
			 0.052636 -0.008718 -0.011463
			 0.052716 -0.009088 -0.012320
			 0.054177 -0.009771 -0.012666
			 0.053418 -0.009872 -0.017250
			 0.052024 -0.009502 -0.024042
			 0.051932 -0.008103 -0.026291
			 0.052777 -0.007588 -0.016346
			 0.052016 -0.007000 -0.017868
			 0.051968 -0.007974 -0.019654
			 0.051354 -0.008741 -0.021859
			 0.051227 -0.009111 -0.018237
			 0.051172 -0.008949 -0.023458
			 0.050580 -0.007185 -0.024700
			 0.073330 -0.006781 -0.013564
			 0.074779 -0.006377 -0.016533
			 0.052569 -0.008464 -0.014611
			 0.052040 -0.008658 -0.016673
			 0.053134 -0.009645 -0.013165
			 0.052791 -0.009380 -0.014772
			 0.051713 -0.009723 -0.017296
			 0.051465 -0.009813 -0.018449
			 0.052726 -0.009754 -0.016012
			 0.051924 -0.009630 -0.022291
			 0.051317 -0.009055 -0.024271
			 0.051398 -0.009055 -0.017355
			 0.051626 -0.007861 -0.017904
			 0.051642 -0.009468 -0.021740
		</DataArray>
	</Points>
			<Polys>
				<DataArray type="Int32" Name="connectivity" format="ascii">
					0 1 2 
					0 3 4 
					0 2 5 
					0 6 1 
					6 0 4 
					7 3 0 
					8 9 0 
					5 8 0 
					9 7 0 
					1 10 2 
					11 10 1 
					6 11 1 
					5 2 12 
					10 13 2 
					13 12 2 
					14 3 7 
					15 3 14 
					3 15 16 
					4 3 17 
					3 16 17 
					4 18 11 
					11 6 4 
					19 18 4 
					19 4 17 
					20 5 21 
					8 5 22 
					22 5 20 
					12 21 5 
					7 23 15 
					7 9 24 
					15 14 7 
					23 7 24 
					9 8 24 
					25 24 8 
					8 22 25 
					11 26 10 
					10 26 27 
					27 13 10 
					28 11 29 
					30 26 11 
					30 11 31 
					29 11 18 
					31 11 28 
					32 12 13 
					21 12 33 
					32 33 12 
					13 34 32 
					35 34 13 
					36 35 13 
					27 36 13 
					16 15 37 
					37 15 38 
					39 38 15 
					23 39 15 
					40 17 16 
					37 41 16 
					40 16 41 
					17 42 19 
					43 44 17 
					42 17 44 
					40 43 17 
					18 19 45 
					29 18 46 
					45 46 18 
					19 42 45 
					20 21 33 
					47 20 33 
					22 20 48 
					20 47 48 
					48 49 22 
					25 22 49 
					50 23 24 
					23 51 39 
					51 23 52 
					50 52 23 
					53 24 54 
					54 24 55 
					24 25 55 
					50 24 53 
					25 56 55 
					56 25 49 
					57 26 58 
					58 26 59 
					26 30 59 
					27 26 57 
					60 36 27 
					27 57 60 
					28 61 62 
					28 29 61 
					28 62 63 
					28 63 31 
					61 29 46 
					59 30 64 
					31 65 30 
					65 64 30 
					65 31 63 
					32 66 33 
					34 66 32 
					47 33 66 
					46 45 34 
					44 66 34 
					34 67 68 
					34 68 69 
					34 35 67 
					46 34 69 
					45 44 34 
					70 35 36 
					70 67 35 
					70 36 60 
					37 71 41 
					71 37 38 
					72 38 39 
					38 73 71 
					73 38 72 
					39 74 72 
					51 74 39 
					41 75 40 
					76 43 40 
					77 76 40 
					77 40 75 
					71 75 41 
					45 42 44 
					43 78 44 
					76 77 43 
					77 78 43 
					44 78 79 
					79 66 44 
					46 69 61 
					66 80 47 
					48 47 81 
					47 80 81 
					48 81 49 
					49 81 56 
					53 52 50 
					82 51 52 
					51 82 74 
					83 82 52 
					84 52 53 
					84 83 52 
					53 54 85 
					85 86 53 
					86 84 53 
					85 54 87 
					54 88 87 
					54 55 88 
					56 81 55 
					55 81 88 
					57 70 60 
					67 57 58 
					70 57 67 
					58 59 68 
					67 58 68 
					59 64 68 
					61 69 89 
					89 62 61 
					63 62 90 
					89 90 62 
					63 90 65 
					64 65 90 
					68 64 69 
					90 69 64 
					80 66 79 
					69 90 89 
					73 75 71 
					91 73 72 
					82 72 74 
					92 91 72 
					92 72 82 
					91 75 73 
					75 91 77 
					93 77 94 
					94 77 91 
					77 93 78 
					94 78 93 
					78 94 79 
					79 95 96 
					94 97 79 
					97 95 79 
					96 98 79 
					98 80 79 
					98 99 80 
					81 80 99 
					88 81 99 
					100 92 82 
					82 101 100 
					101 82 83 
					101 83 84 
					100 84 86 
					101 84 100 
					86 85 102 
					87 102 85 
					100 86 96 
					86 102 96 
					87 88 99 
					102 87 98 
					87 99 98 
					97 94 91 
					92 97 91 
					95 97 92 
					92 100 95 
					100 96 95 
					96 102 98 
				</DataArray>
				<DataArray type="Int32" Name="offsets" format="ascii">
					3 6 9 12 15 18 21 24 27 30 33 36 39 42 45 48 51 54 57 60 63 66 69 72 75 78 81 84 87 90 93 96 99 102 105 108 111 114 117 120 123 126 129 132 135 138 141 144 147 150 153 156 159 162 165 168 171 174 177 180 183 186 189 192 195 198 201 204 207 210 213 216 219 222 225 228 231 234 237 240 243 246 249 252 255 258 261 264 267 270 273 276 279 282 285 288 291 294 297 300 303 306 309 312 315 318 321 324 327 330 333 336 339 342 345 348 351 354 357 360 363 366 369 372 375 378 381 384 387 390 393 396 399 402 405 408 411 414 417 420 423 426 429 432 435 438 441 444 447 450 453 456 459 462 465 468 471 474 477 480 483 486 489 492 495 498 501 504 507 510 513 516 519 522 525 528 531 534 537 540 543 546 549 552 555 558 561 564 567 570 573 576 579 582 585 588 591 594 597 600 603 606 
				</DataArray>
			</Polys>
		</Piece>
	</PolyData>
</VTKFile>
