<?xml version="1.0"?>
<VTKFile type="PolyData" version="0.1" byte_order="LittleEndian" compressor="vtkZLibDataCompressor">
	<PolyData>
		<Piece NumberOfPoints="54" NumberOfVerts="0" NumberOfLines="0" NumberOfStrips="0" NumberOfPolys="104">
		<PointData Normals="Normals">
		<DataArray type="Float32" Name="Normals" NumberOfComponents="3" format="ascii">
			 0.466907  0.269744  0.842161
			-0.211288  0.034268  0.976823
			 0.415087  0.744281  0.523210
			 0.666364  0.673362  0.320224
			 0.371420 -0.249250  0.894383
			 0.664444  0.285448  0.690676
			 0.473049  0.038732  0.880185
			 0.036805  0.928090  0.370533
			-0.097477  0.744102  0.660917
			 0.251685 -0.834179  0.490715
			 0.000000  0.000000  1.000000
			-0.282010  0.733117  0.618877
			-0.115912 -0.784827  0.608779
			 0.173584  0.244954  0.953869
			 0.144491 -0.913917 -0.379313
			-0.231538 -0.970294  0.070141
			 0.215705 -0.976361 -0.013814
			 0.114315  0.970398 -0.212744
			 0.231185  0.972891 -0.005978
			 0.545021  0.653430  0.525340
			 0.186817 -0.349080  0.918283
			 0.775520  0.329554  0.538482
			 0.598954  0.800783  0.000643
			-0.098885 -0.915712  0.389479
			 0.592206 -0.787381  0.171241
			-0.226596 -0.958015 -0.175673
			-0.044038 -0.598986 -0.799548
			 0.027984 -0.856461 -0.515452
			-0.347788 -0.462972 -0.815292
			 0.413064 -0.218906 -0.884001
			 0.012345 -0.126322 -0.991912
			 0.396267 -0.765186 -0.507407
			-0.184716 -0.141792 -0.972510
			 0.212107  0.500533 -0.839331
			 0.296977  0.651854 -0.697775
			 0.680614  0.375301 -0.629217
			-0.007861  0.627028 -0.778957
			 0.652637  0.684366 -0.325128
			-0.263802  0.942976 -0.202991
			-0.792525  0.578811  0.192046
			-0.211099  0.885827  0.413217
			-0.254496  0.422282  0.870005
			-0.760823  0.089628  0.642741
			-0.924256 -0.053597  0.377993
			 0.950251 -0.248647 -0.187610
			-0.698440 -0.683220  0.213051
			 0.754141 -0.470569 -0.458080
			-0.973384 -0.137589 -0.183285
			-0.826661 -0.562563 -0.012402
			 0.158694  0.141486 -0.977138
			-0.701155 -0.060028 -0.710477
			 0.000000  0.000000  1.000000
			-0.874115  0.378244 -0.304720
			-0.990280 -0.015823  0.138183
		</DataArray>
	</PointData>
	<Points>
		<DataArray type="Float32" NumberOfComponents="3" format="ascii">
			 0.065862 -0.004236 -0.010052
			 0.067072 -0.004452 -0.010368
			 0.065738 -0.003046 -0.010778
			 0.065098 -0.002702 -0.010485
			 0.065436 -0.004479 -0.009917
			 0.064822 -0.002936 -0.009665
			 0.065250 -0.003989 -0.009812
			 0.068125 -0.003410 -0.011565
			 0.068819 -0.003714 -0.010407
			 0.064926 -0.004929 -0.010084
			 0.066417 -0.004817 -0.010361
			 0.068426 -0.003988 -0.010253
			 0.067363 -0.004774 -0.010056
			 0.068181 -0.004331 -0.009973
			 0.064701 -0.005371 -0.013315
			 0.067438 -0.004954 -0.010816
			 0.067265 -0.004782 -0.012679
			 0.067384 -0.003035 -0.012429
			 0.064220 -0.002198 -0.010901
			 0.064311 -0.002233 -0.009425
			 0.063540 -0.004199 -0.008650
			 0.069403 -0.003443 -0.010860
			 0.069479 -0.003392 -0.012356
			 0.062947 -0.005213 -0.009757
			 0.069225 -0.004070 -0.010667
			 0.062518 -0.005634 -0.013456
			 0.062879 -0.005211 -0.014305
			 0.066246 -0.005224 -0.013927
			 0.065594 -0.005159 -0.013682
			 0.063761 -0.004909 -0.014090
			 0.064856 -0.004315 -0.013885
			 0.067906 -0.004311 -0.015304
			 0.066501 -0.004927 -0.014388
			 0.065574 -0.003244 -0.013385
			 0.063474 -0.002854 -0.013946
			 0.068783 -0.003622 -0.014533
			 0.068070 -0.003899 -0.015008
			 0.069061 -0.003474 -0.013961
			 0.062471 -0.002377 -0.012743
			 0.062602 -0.002334 -0.011531
			 0.063747 -0.002244 -0.009166
			 0.063656 -0.002846 -0.008526
			 0.063283 -0.003490 -0.008703
			 0.062880 -0.004651 -0.009324
			 0.069381 -0.003690 -0.013107
			 0.062364 -0.005478 -0.011402
			 0.068776 -0.004151 -0.014342
			 0.062122 -0.005073 -0.013788
			 0.062180 -0.005454 -0.012858
			 0.062842 -0.003578 -0.014758
			 0.062243 -0.004277 -0.014559
			 0.066928 -0.005149 -0.014687
			 0.062686 -0.002925 -0.014289
			 0.062193 -0.005229 -0.011823
		</DataArray>
	</Points>
			<Polys>
				<DataArray type="Int32" Name="connectivity" format="ascii">
					0 1 2 
					2 3 0 
					0 4 1 
					3 5 0 
					0 5 6 
					0 6 4 
					1 7 2 
					1 8 7 
					1 9 10 
					9 1 4 
					11 8 1 
					1 12 13 
					1 13 11 
					10 9 1 
					14 1 9 
					15 12 1 
					15 1 16 
					1 14 16 
					17 2 7 
					2 17 18 
					18 3 2 
					19 5 3 
					18 19 3 
					20 4 6 
					9 4 20 
					19 6 5 
					6 19 20 
					7 21 22 
					7 8 21 
					7 22 17 
					8 11 13 
					13 21 8 
					9 23 14 
					20 23 9 
					12 24 13 
					15 24 12 
					13 24 21 
					25 26 14 
					25 14 23 
					27 14 28 
					27 16 14 
					14 29 30 
					29 14 26 
					30 28 14 
					24 15 16 
					24 16 31 
					31 16 32 
					32 16 27 
					33 17 32 
					34 18 17 
					17 33 34 
					17 35 36 
					17 37 35 
					37 17 22 
					32 17 36 
					34 38 18 
					18 38 39 
					19 18 39 
					19 40 41 
					20 19 41 
					39 40 19 
					42 20 41 
					20 43 23 
					20 42 43 
					44 22 21 
					24 44 21 
					37 22 44 
					43 45 23 
					45 25 23 
					46 44 24 
					46 24 31 
					47 26 25 
					45 48 25 
					48 47 25 
					49 29 26 
					49 26 50 
					47 50 26 
					27 28 32 
					28 30 32 
					29 49 34 
					29 34 30 
					33 32 30 
					33 30 34 
					31 32 36 
					32 51 31 
					32 31 51 
					36 46 31 
					38 34 52 
					34 49 52 
					46 36 35 
					35 37 44 
					46 35 44 
					39 38 52 
					41 39 42 
					41 40 39 
					43 39 52 
					43 42 39 
					47 43 52 
					45 43 53 
					43 47 53 
					53 48 45 
					50 47 52 
					48 53 47 
					50 52 49 
				</DataArray>
				<DataArray type="Int32" Name="offsets" format="ascii">
					3 6 9 12 15 18 21 24 27 30 33 36 39 42 45 48 51 54 57 60 63 66 69 72 75 78 81 84 87 90 93 96 99 102 105 108 111 114 117 120 123 126 129 132 135 138 141 144 147 150 153 156 159 162 165 168 171 174 177 180 183 186 189 192 195 198 201 204 207 210 213 216 219 222 225 228 231 234 237 240 243 246 249 252 255 258 261 264 267 270 273 276 279 282 285 288 291 294 297 300 303 306 309 312 
				</DataArray>
			</Polys>
		</Piece>
	</PolyData>
</VTKFile>
