<?xml version="1.0"?>
<VTKFile type="PolyData" version="0.1" byte_order="LittleEndian" compressor="vtkZLibDataCompressor">
	<PolyData>
		<Piece NumberOfPoints="53" NumberOfVerts="0" NumberOfLines="0" NumberOfStrips="0" NumberOfPolys="102">
		<PointData Normals="Normals">
		<DataArray type="Float32" Name="Normals" NumberOfComponents="3" format="ascii">
			-0.087338  0.987110  0.134112
			 0.890074  0.417787  0.182267
			 0.241459  0.942216 -0.232220
			 0.048417  0.877721  0.476720
			-0.010032  0.625682  0.780014
			-0.066971  0.774272 -0.629299
			 0.196025  0.197009 -0.960605
			 0.855661  0.015082 -0.517317
			 0.715293 -0.688242 -0.121157
			 0.818725 -0.055591  0.571488
			 0.369878  0.884485  0.284386
			-0.015129  0.239180  0.970857
			 0.233612  0.199564  0.951630
			-0.343013  0.178582  0.922199
			-0.457346  0.348547  0.818138
			 0.455077 -0.593722 -0.663626
			 0.523867  0.721498 -0.452774
			 0.545580  0.323529 -0.773092
			 0.331744 -0.539328 -0.773997
			 0.133254 -0.939033 -0.316955
			 0.310333 -0.884428 -0.348541
			 0.203743 -0.930207 -0.305292
			 0.120096 -0.990431 -0.068000
			 0.411127 -0.857543 -0.309184
			 0.518847 -0.522384  0.676693
			 0.270239 -0.771697  0.575722
			 0.411375  0.907387 -0.086133
			 0.201362  0.595721  0.777541
			-0.008224  0.887899  0.459965
			 0.174167 -0.254336  0.951304
			 0.331425  0.065169  0.941228
			-0.155366 -0.680677  0.715919
			-0.421795 -0.335266  0.842428
			-0.437134  0.668800 -0.601349
			 0.553628 -0.182586 -0.812501
			 0.192822 -0.764173 -0.615515
			-0.025544 -0.980343 -0.195638
			 0.294665 -0.847496  0.441501
			 0.384905 -0.922818  0.015967
			-0.499431  0.857064  0.126530
			-0.067999  0.985054 -0.158254
			 0.136181  0.619381  0.773190
			-0.894918  0.416925  0.159046
			 0.263723 -0.304674  0.915218
			-0.400928  0.151645  0.903471
			-0.288387 -0.069167 -0.955013
			-0.970316 -0.058833 -0.234576
			-0.988236  0.113341 -0.102677
			-0.343272 -0.663944 -0.664337
			-0.060547 -0.861049  0.504905
			-0.818892 -0.553673 -0.151200
			-0.947511 -0.153578 -0.280421
			-0.568434 -0.550106  0.611773
		</DataArray>
	</PointData>
	<Points>
		<DataArray type="Float32" NumberOfComponents="3" format="ascii">
			 0.018243 -0.002511  0.051748
			 0.019068 -0.002611  0.051449
			 0.018867 -0.002442  0.050454
			 0.016987 -0.002580  0.051679
			 0.018650 -0.002895  0.052112
			 0.017722 -0.003271  0.049035
			 0.016685 -0.003723  0.048850
			 0.018874 -0.002882  0.049778
			 0.018637 -0.004012  0.052159
			 0.018924 -0.003508  0.052344
			 0.014975 -0.001800  0.051455
			 0.016771 -0.003008  0.051882
			 0.018350 -0.003623  0.052699
			 0.017791 -0.003973  0.052739
			 0.016975 -0.004462  0.052093
			 0.017306 -0.003785  0.048756
			 0.014932 -0.002376  0.049452
			 0.014810 -0.003382  0.048386
			 0.014684 -0.004072  0.048473
			 0.017225 -0.004044  0.049274
			 0.015073 -0.005202  0.050479
			 0.016961 -0.004306  0.050367
			 0.016998 -0.005214  0.051799
			 0.017805 -0.004081  0.050771
			 0.018281 -0.004297  0.052546
			 0.017567 -0.004768  0.052448
			 0.012929 -0.000549  0.049428
			 0.014395 -0.001848  0.051701
			 0.012954 -0.001236  0.050986
			 0.014740 -0.004608  0.051801
			 0.014188 -0.003443  0.052125
			 0.016189 -0.004763  0.051901
			 0.016809 -0.004972  0.052207
			 0.012351 -0.000934  0.047227
			 0.013737 -0.003200  0.047618
			 0.013116 -0.004562  0.048312
			 0.012678 -0.006094  0.051304
			 0.015473 -0.005157  0.051309
			 0.016370 -0.004913  0.051125
			 0.012139 -0.000588  0.049099
			 0.012421 -0.000482  0.048457
			 0.012260 -0.002392  0.052823
			 0.011360 -0.001948  0.052010
			 0.012562 -0.004825  0.052835
			 0.011689 -0.003213  0.053384
			 0.012511 -0.001982  0.046603
			 0.012223 -0.003725  0.047788
			 0.012299 -0.003495  0.048298
			 0.012536 -0.003815  0.047323
			 0.012270 -0.005877  0.052212
			 0.011689 -0.005708  0.051230
			 0.011820 -0.004662  0.049588
			 0.011494 -0.005376  0.052475
		</DataArray>
	</Points>
			<Polys>
				<DataArray type="Int32" Name="connectivity" format="ascii">
					0 1 2 
					3 4 0 
					0 5 6 
					5 0 2 
					0 6 3 
					1 0 4 
					7 2 1 
					1 8 7 
					1 4 9 
					9 8 1 
					5 2 7 
					10 3 6 
					11 3 10 
					11 4 3 
					12 4 13 
					4 14 13 
					4 11 14 
					12 9 4 
					15 6 5 
					15 5 7 
					16 6 17 
					6 16 10 
					17 6 18 
					15 19 6 
					18 6 20 
					21 6 19 
					6 21 20 
					15 7 8 
					8 22 23 
					8 23 15 
					24 25 8 
					9 24 8 
					25 22 8 
					12 24 9 
					16 26 10 
					27 11 10 
					10 28 27 
					26 28 10 
					29 11 30 
					30 11 27 
					11 29 31 
					14 11 31 
					12 13 24 
					32 13 14 
					13 25 24 
					32 25 13 
					14 31 32 
					15 23 19 
					17 26 16 
					26 17 33 
					34 33 17 
					34 17 18 
					18 20 35 
					34 18 35 
					23 21 19 
					20 21 23 
					36 20 37 
					36 35 20 
					37 20 38 
					20 23 38 
					23 22 31 
					25 32 22 
					31 22 32 
					38 23 31 
					39 26 40 
					39 28 26 
					26 33 40 
					41 27 28 
					41 30 27 
					42 28 39 
					41 28 42 
					29 43 37 
					30 43 29 
					29 37 31 
					41 44 30 
					43 30 44 
					38 31 37 
					33 39 40 
					45 33 34 
					46 33 45 
					33 46 47 
					42 39 33 
					33 47 42 
					35 48 34 
					48 45 34 
					48 35 36 
					49 36 37 
					48 36 50 
					50 36 49 
					49 37 43 
					41 42 44 
					50 44 42 
					50 42 51 
					51 42 47 
					44 52 43 
					52 49 43 
					52 44 50 
					45 48 46 
					46 48 51 
					47 46 51 
					51 48 50 
					52 50 49 
				</DataArray>
				<DataArray type="Int32" Name="offsets" format="ascii">
					3 6 9 12 15 18 21 24 27 30 33 36 39 42 45 48 51 54 57 60 63 66 69 72 75 78 81 84 87 90 93 96 99 102 105 108 111 114 117 120 123 126 129 132 135 138 141 144 147 150 153 156 159 162 165 168 171 174 177 180 183 186 189 192 195 198 201 204 207 210 213 216 219 222 225 228 231 234 237 240 243 246 249 252 255 258 261 264 267 270 273 276 279 282 285 288 291 294 297 300 303 306 
				</DataArray>
			</Polys>
		</Piece>
	</PolyData>
</VTKFile>
