<?xml version="1.0"?>
<VTKFile type="PolyData" version="0.1" byte_order="LittleEndian" compressor="vtkZLibDataCompressor">
	<PolyData>
		<Piece NumberOfPoints="103" NumberOfVerts="0" NumberOfLines="0" NumberOfStrips="0" NumberOfPolys="202">
		<PointData Normals="Normals">
		<DataArray type="Float32" Name="Normals" NumberOfComponents="3" format="ascii">
			 0.378615  0.669531  0.639045
			 0.239078  0.876285  0.418289
			 0.314059  0.944791  0.093469
			 0.523665  0.543265  0.656230
			 0.184408  0.623649  0.759642
			 0.394169 -0.024369  0.918715
			 0.174453 -0.189935  0.966173
			 0.098222  0.993684  0.054269
			 0.090824  0.990704  0.101275
			 0.184041  0.779030 -0.599368
			 0.288618  0.667631 -0.686271
			-0.604219  0.753970 -0.257778
			 0.136756  0.984492  0.109877
			 0.240329  0.768110  0.593506
			 0.488472  0.091254  0.867795
			 0.652775  0.047224  0.756078
			 0.476840  0.144614  0.867013
			-0.296494  0.566130  0.769148
			-0.086882  0.507609  0.857196
			 0.126548 -0.908699  0.397808
			 0.383435 -0.598850  0.703105
			-0.021873 -0.977008 -0.212077
			-0.059053 -0.865070  0.498163
			 0.084590  0.146722  0.985554
			 0.156889  0.492919 -0.855814
			 0.010762  0.691711 -0.722094
			 0.373839  0.843923 -0.384758
			 0.180282  0.655296  0.733543
			 0.455830  0.850236  0.263283
			 0.223322 -0.088506 -0.970718
			 0.126176  0.204777 -0.970642
			-0.355780  0.628081 -0.692051
			-0.925488  0.066379 -0.372916
			-0.543709  0.106906 -0.832437
			-0.994687 -0.093036 -0.044059
			-0.944326  0.325543  0.047644
			-0.416515  0.192237  0.888572
			 0.526865 -0.681405  0.508036
			 0.594535 -0.372188  0.712744
			 0.244518 -0.220687  0.944197
			-0.422700 -0.255731  0.869440
			-0.465096  0.162270  0.870261
			 0.086546  0.077613  0.993220
			-0.116019  0.437253  0.891824
			 0.261794 -0.945501  0.193627
			 0.092254 -0.174466 -0.980332
			 0.036493 -0.321038 -0.946363
			 0.301534 -0.814757 -0.495226
			 0.153820 -0.863655  0.480042
			-0.063520 -0.916201  0.395652
			 0.197720 -0.980011 -0.022023
			 0.046714 -0.275333  0.960213
			 0.139481 -0.109018 -0.984205
			 0.796083 -0.046357 -0.603409
			 0.946538  0.322467 -0.008955
			 0.546706 -0.396955  0.737251
			 0.793381  0.218224  0.568265
			-0.672473 -0.421539 -0.608346
			 0.235439 -0.365675 -0.900472
			 0.038068 -0.610773 -0.790890
			-0.986410 -0.057485  0.153921
			-0.762882 -0.606397  0.224262
			-0.856332 -0.515524  0.030516
			-0.963714 -0.109036  0.243653
			-0.965005  0.261921 -0.012782
			-0.955741 -0.205650 -0.210397
			-0.959948  0.278066 -0.034331
			-0.913757  0.270277 -0.303313
			-0.903163  0.410186 -0.126664
			-0.959069  0.050878  0.278564
			-0.407469 -0.201746  0.890656
			 0.107656 -0.948787  0.297008
			-0.232218 -0.693417  0.682091
			 0.111023 -0.993791 -0.007331
			-0.055494 -0.964308 -0.258903
			 0.404586 -0.814543 -0.415728
			 0.744136 -0.665632  0.056528
			-0.952168 -0.120937  0.280626
			-0.446792 -0.689166 -0.570462
			-0.752416 -0.633347 -0.180944
			-0.793229 -0.289514  0.535695
			-0.960330 -0.274089 -0.051389
			-0.946867 -0.169673  0.273230
			-0.806006 -0.492094 -0.328935
			-0.868893  0.273575 -0.412531
			-0.886735  0.423660 -0.184970
			-0.920252  0.386286  0.062610
			-0.986652  0.067929 -0.147996
			-0.913259 -0.389703 -0.118701
			-0.996421 -0.039377  0.074794
			-0.989772  0.135342 -0.045090
			-0.413829 -0.907409  0.073170
			-0.687311 -0.684186  0.243911
			-0.576870 -0.813255 -0.076401
			-0.675037 -0.735878 -0.052994
			-0.609724 -0.672119 -0.420109
			-0.626979 -0.699772 -0.342369
			-0.402343 -0.908210 -0.115212
			-0.997373  0.025633 -0.067746
			-0.896888  0.110209 -0.428306
			-0.936785  0.079601 -0.340732
			-0.928106  0.330848 -0.170762
			-0.844826 -0.533551  0.039905
		</DataArray>
	</PointData>
	<Points>
		<DataArray type="Float32" NumberOfComponents="3" format="ascii">
			 0.062665 -0.003389  0.019254
			 0.065056 -0.002941  0.017001
			 0.056696 -0.001421  0.019612
			 0.058424 -0.003212  0.021992
			 0.065300 -0.004616  0.019096
			 0.062563 -0.006126  0.021242
			 0.064144 -0.006968  0.020812
			 0.063285 -0.002607  0.016628
			 0.068010 -0.002665  0.015635
			 0.056924 -0.002611  0.012808
			 0.053353 -0.001662  0.011500
			 0.050244 -0.000074  0.015073
			 0.053043 -0.000066  0.021397
			 0.052751 -0.001115  0.025903
			 0.058589 -0.005154  0.022968
			 0.056744 -0.005197  0.024229
			 0.054077 -0.005485  0.026735
			 0.068001 -0.004920  0.019380
			 0.067247 -0.006377  0.019605
			 0.062159 -0.007091  0.020463
			 0.058872 -0.007052  0.022252
			 0.063055 -0.007363  0.013204
			 0.065876 -0.007758  0.020195
			 0.066325 -0.007289  0.020345
			 0.064102 -0.003966  0.012931
			 0.067684 -0.003636  0.013705
			 0.073076 -0.003784  0.014165
			 0.069744 -0.005020  0.020018
			 0.073394 -0.003859  0.016272
			 0.056313 -0.006910  0.011086
			 0.059606 -0.004654  0.012190
			 0.051970 -0.001442  0.011624
			 0.052411 -0.002250  0.011015
			 0.052290 -0.005748  0.010472
			 0.052434 -0.004594  0.019246
			 0.051439 -0.000654  0.023975
			 0.051519 -0.003668  0.026970
			 0.056566 -0.006641  0.024060
			 0.055194 -0.006760  0.025955
			 0.053686 -0.006554  0.026758
			 0.068144 -0.007022  0.020799
			 0.067844 -0.006888  0.020325
			 0.069132 -0.006775  0.020829
			 0.067148 -0.007019  0.020180
			 0.056892 -0.007803  0.020839
			 0.063338 -0.005438  0.012346
			 0.064971 -0.007200  0.012520
			 0.059868 -0.007680  0.013082
			 0.070040 -0.007529  0.020151
			 0.068199 -0.007694  0.020019
			 0.072173 -0.007676  0.017811
			 0.067360 -0.007683  0.020299
			 0.070032 -0.005748  0.011557
			 0.074493 -0.005370  0.013537
			 0.075159 -0.005510  0.016184
			 0.072172 -0.006979  0.019626
			 0.074923 -0.005682  0.017219
			 0.051854 -0.007199  0.011074
			 0.059936 -0.006829  0.012341
			 0.054240 -0.008662  0.011096
			 0.051845 -0.006568  0.011855
			 0.052041 -0.006627  0.012708
			 0.052396 -0.006493  0.014910
			 0.051690 -0.007248  0.011721
			 0.052354 -0.006813  0.019337
			 0.052378 -0.006490  0.016804
			 0.052263 -0.006440  0.018044
			 0.051225 -0.006904  0.023889
			 0.051913 -0.007833  0.021824
			 0.051216 -0.006358  0.026136
			 0.051812 -0.006224  0.027127
			 0.052024 -0.009502  0.024042
			 0.051932 -0.008103  0.026291
			 0.053418 -0.009872  0.017250
			 0.054177 -0.009771  0.012666
			 0.073330 -0.006781  0.013564
			 0.074779 -0.006377  0.016533
			 0.052496 -0.007797  0.012452
			 0.052636 -0.008718  0.011463
			 0.052716 -0.009088  0.012320
			 0.052650 -0.007190  0.012572
			 0.053273 -0.006802  0.014630
			 0.053241 -0.006886  0.013964
			 0.052905 -0.006835  0.016285
			 0.052777 -0.007588  0.016346
			 0.052016 -0.007000  0.017868
			 0.051968 -0.007974  0.019654
			 0.051354 -0.008741  0.021859
			 0.051172 -0.008949  0.023458
			 0.050580 -0.007185  0.024700
			 0.051227 -0.009111  0.018237
			 0.051924 -0.009630  0.022291
			 0.051317 -0.009055  0.024271
			 0.052791 -0.009380  0.014772
			 0.051465 -0.009813  0.018449
			 0.051713 -0.009723  0.017296
			 0.052726 -0.009754  0.016012
			 0.053134 -0.009645  0.013165
			 0.052569 -0.008464  0.014611
			 0.052040 -0.008658  0.016673
			 0.051398 -0.009055  0.017355
			 0.051626 -0.007861  0.017904
			 0.051642 -0.009468  0.021740
		</DataArray>
	</Points>
			<Polys>
				<DataArray type="Int32" Name="connectivity" format="ascii">
					0 1 2 
					3 0 2 
					0 4 1 
					5 0 3 
					0 6 4 
					0 5 6 
					1 7 2 
					1 4 8 
					1 8 7 
					9 10 2 
					9 2 7 
					2 10 11 
					2 12 13 
					2 13 3 
					2 11 12 
					14 3 15 
					16 3 13 
					15 3 16 
					3 14 5 
					4 17 8 
					18 17 4 
					4 6 18 
					6 5 19 
					20 5 14 
					5 20 19 
					19 21 6 
					6 21 22 
					6 22 23 
					6 23 18 
					9 7 8 
					8 24 9 
					25 8 26 
					8 17 27 
					28 8 27 
					24 8 25 
					26 8 28 
					29 10 9 
					9 24 30 
					29 9 30 
					11 10 31 
					31 10 32 
					33 32 10 
					29 33 10 
					32 34 11 
					35 12 11 
					11 31 32 
					35 11 34 
					35 13 12 
					13 35 36 
					36 16 13 
					20 14 15 
					20 15 37 
					38 15 16 
					38 37 15 
					16 39 38 
					39 16 36 
					40 17 41 
					42 17 40 
					42 27 17 
					41 17 18 
					18 23 43 
					43 41 18 
					20 44 19 
					19 44 21 
					44 20 37 
					21 45 46 
					21 44 47 
					48 49 21 
					50 48 21 
					49 22 21 
					50 21 46 
					21 47 45 
					23 22 51 
					22 49 51 
					43 23 51 
					45 30 24 
					46 24 25 
					24 46 45 
					52 25 26 
					46 25 52 
					53 52 26 
					54 53 26 
					28 54 26 
					55 27 42 
					27 56 28 
					27 55 56 
					54 28 56 
					33 29 57 
					30 58 29 
					29 47 59 
					47 29 58 
					29 59 57 
					45 58 30 
					60 32 33 
					61 32 60 
					32 61 62 
					32 62 34 
					33 63 60 
					63 33 57 
					35 34 64 
					62 65 34 
					66 34 65 
					34 66 64 
					67 35 68 
					69 35 67 
					69 36 35 
					68 35 64 
					69 70 36 
					39 36 70 
					37 71 44 
					72 37 38 
					72 71 37 
					39 72 38 
					70 72 39 
					40 41 49 
					48 42 40 
					48 40 49 
					43 51 41 
					49 41 51 
					48 55 42 
					47 44 73 
					73 44 71 
					47 58 45 
					52 50 46 
					47 74 59 
					73 74 47 
					50 55 48 
					75 50 52 
					55 50 76 
					75 76 50 
					52 53 75 
					76 53 54 
					53 76 75 
					56 76 54 
					76 56 55 
					57 77 63 
					57 59 78 
					57 78 79 
					77 57 79 
					59 79 78 
					59 74 79 
					63 80 60 
					61 60 80 
					62 61 81 
					80 82 61 
					81 61 82 
					81 83 62 
					62 83 65 
					63 77 80 
					64 66 68 
					66 65 84 
					83 84 65 
					66 84 85 
					68 66 86 
					66 85 86 
					87 67 68 
					88 67 87 
					88 89 67 
					89 69 67 
					68 90 87 
					68 86 90 
					69 72 70 
					89 72 69 
					73 71 91 
					71 92 91 
					92 71 72 
					92 72 89 
					73 93 74 
					94 95 73 
					73 96 93 
					73 95 96 
					73 91 94 
					74 97 79 
					97 74 93 
					80 77 82 
					82 77 98 
					79 98 77 
					93 79 97 
					98 79 93 
					81 82 98 
					83 81 84 
					81 98 99 
					84 81 99 
					84 99 100 
					100 101 84 
					85 84 101 
					86 85 101 
					90 86 100 
					100 86 101 
					102 87 90 
					87 102 88 
					92 89 88 
					91 88 102 
					91 92 88 
					94 90 100 
					94 102 90 
					91 102 94 
					98 93 96 
					95 94 100 
					99 96 95 
					95 100 99 
					98 96 99 
				</DataArray>
				<DataArray type="Int32" Name="offsets" format="ascii">
					3 6 9 12 15 18 21 24 27 30 33 36 39 42 45 48 51 54 57 60 63 66 69 72 75 78 81 84 87 90 93 96 99 102 105 108 111 114 117 120 123 126 129 132 135 138 141 144 147 150 153 156 159 162 165 168 171 174 177 180 183 186 189 192 195 198 201 204 207 210 213 216 219 222 225 228 231 234 237 240 243 246 249 252 255 258 261 264 267 270 273 276 279 282 285 288 291 294 297 300 303 306 309 312 315 318 321 324 327 330 333 336 339 342 345 348 351 354 357 360 363 366 369 372 375 378 381 384 387 390 393 396 399 402 405 408 411 414 417 420 423 426 429 432 435 438 441 444 447 450 453 456 459 462 465 468 471 474 477 480 483 486 489 492 495 498 501 504 507 510 513 516 519 522 525 528 531 534 537 540 543 546 549 552 555 558 561 564 567 570 573 576 579 582 585 588 591 594 597 600 603 606 
				</DataArray>
			</Polys>
		</Piece>
	</PolyData>
</VTKFile>
