<?xml version="1.0"?>
<VTKFile type="PolyData" version="0.1" byte_order="LittleEndian" compressor="vtkZLibDataCompressor">
	<PolyData>
		<Piece NumberOfPoints="58" NumberOfVerts="0" NumberOfLines="0" NumberOfStrips="0" NumberOfPolys="112">
		<PointData Normals="Normals">
		<DataArray type="Float32" Name="Normals" NumberOfComponents="3" format="ascii">
			 0.834356  0.128649  0.536003
			 0.528381  0.817762  0.228208
			 0.014699  0.863066  0.504877
			-0.174088  0.665343  0.725956
			 0.859193 -0.474834  0.190581
			 0.428136 -0.363580  0.827351
			 0.131880  0.990871 -0.027966
			 0.768978  0.635673 -0.067776
			 0.507995  0.512165  0.692552
			 0.108939  0.988632  0.103627
			 0.271211 -0.526378  0.805836
			 0.286128 -0.877045  0.385906
			 0.825376 -0.551104 -0.122631
			 0.217334 -0.974854  0.049256
			 0.272423  0.901525 -0.336213
			-0.211021  0.789428 -0.576432
			 0.285861  0.867230 -0.407670
			 0.318976  0.851881  0.415395
			 0.731691  0.116985  0.671523
			 0.481505 -0.129200  0.866868
			 0.228386  0.825579 -0.516003
			-0.843351  0.537106 -0.016639
			-0.717754  0.670302  0.188480
			 0.241547 -0.800251  0.548866
			 0.308175 -0.935715  0.171658
			 0.002346 -0.998317  0.057949
			 0.326752  0.564090 -0.758311
			-0.162287 -0.921801 -0.352059
			 0.105924 -0.809392 -0.577637
			-0.172884  0.087964 -0.981007
			 0.253714 -0.862675 -0.437516
			 0.060932 -0.882702 -0.465965
			-0.211268 -0.679577 -0.702525
			 0.239226  0.529926 -0.813603
			-0.072501  0.386558 -0.919411
			-0.460158  0.102925 -0.881851
			-0.662516  0.122933 -0.738892
			-0.467392  0.570985  0.674923
			 0.219222 -0.334814  0.916429
			 0.461550 -0.589250  0.663141
			-0.342900  0.834025 -0.432229
			 0.506846  0.166687 -0.845767
			-0.307663  0.303440 -0.901813
			-0.992660  0.011404 -0.120403
			-0.950932 -0.270703  0.149824
			-0.980997 -0.153598  0.118547
			-0.202686 -0.890838  0.406604
			-0.584002 -0.805363  0.101650
			-0.633729 -0.748745 -0.194342
			 0.037202 -0.895998 -0.442497
			 0.004791 -0.402366 -0.915466
			 0.080227 -0.444962 -0.891949
			-0.188382 -0.057715 -0.980398
			 0.215870  0.054140 -0.974920
			-0.895411  0.076263  0.438660
			-0.528575 -0.602572  0.597926
			-0.769888 -0.148324 -0.620703
			-0.965053 -0.261923  0.008313
		</DataArray>
	</PointData>
	<Points>
		<DataArray type="Float32" NumberOfComponents="3" format="ascii">
			 0.050187 -0.003038 -0.024057
			 0.050529 -0.002870 -0.025265
			 0.049118 -0.002974 -0.024945
			 0.049596 -0.003328 -0.023661
			 0.050654 -0.003154 -0.025680
			 0.048276 -0.004184 -0.023764
			 0.048556 -0.002537 -0.025948
			 0.050651 -0.002891 -0.026363
			 0.046360 -0.003028 -0.023871
			 0.044215 -0.001505 -0.024603
			 0.047707 -0.004285 -0.023653
			 0.048340 -0.004648 -0.024167
			 0.050491 -0.003543 -0.028497
			 0.048185 -0.004523 -0.025803
			 0.047727 -0.002294 -0.026252
			 0.048710 -0.003463 -0.028007
			 0.050210 -0.003160 -0.028857
			 0.044308 -0.001579 -0.022386
			 0.045579 -0.003471 -0.022936
			 0.046051 -0.004246 -0.023256
			 0.044609 -0.002107 -0.027886
			 0.043340 -0.001707 -0.024700
			 0.043564 -0.001766 -0.023233
			 0.045528 -0.004765 -0.023420
			 0.046659 -0.004825 -0.023925
			 0.043704 -0.005647 -0.025866
			 0.049922 -0.003707 -0.029728
			 0.048043 -0.004990 -0.028632
			 0.048814 -0.004550 -0.029630
			 0.049360 -0.004085 -0.029841
			 0.045677 -0.005275 -0.027424
			 0.046250 -0.005102 -0.027765
			 0.047212 -0.004714 -0.028230
			 0.046284 -0.002886 -0.027661
			 0.047267 -0.003731 -0.028083
			 0.047611 -0.004435 -0.028530
			 0.048175 -0.004608 -0.029225
			 0.043944 -0.002368 -0.021172
			 0.043887 -0.003519 -0.020832
			 0.044966 -0.004344 -0.022538
			 0.043501 -0.002253 -0.028578
			 0.044864 -0.003143 -0.028513
			 0.043488 -0.003337 -0.029600
			 0.042962 -0.004953 -0.028005
			 0.043171 -0.005018 -0.023940
			 0.043029 -0.005186 -0.024932
			 0.043337 -0.004885 -0.022513
			 0.043012 -0.005385 -0.025828
			 0.043115 -0.005414 -0.027877
			 0.043985 -0.005496 -0.028471
			 0.045749 -0.004606 -0.028005
			 0.043276 -0.004603 -0.029171
			 0.046633 -0.004408 -0.028177
			 0.045608 -0.003855 -0.028142
			 0.043471 -0.003710 -0.021153
			 0.043373 -0.004163 -0.021509
			 0.043243 -0.004140 -0.029387
			 0.042915 -0.005262 -0.026342
		</DataArray>
	</Points>
			<Polys>
				<DataArray type="Int32" Name="connectivity" format="ascii">
					0 1 2 
					2 3 0 
					0 4 1 
					5 0 3 
					4 0 5 
					1 6 2 
					1 7 6 
					1 4 7 
					8 2 9 
					5 3 2 
					2 6 9 
					10 2 8 
					2 10 5 
					4 5 11 
					7 4 12 
					11 13 4 
					13 12 4 
					11 5 10 
					9 6 14 
					14 6 15 
					15 6 16 
					6 7 16 
					7 12 16 
					9 17 8 
					8 17 18 
					18 19 8 
					8 19 10 
					20 21 9 
					9 14 20 
					22 9 21 
					22 17 9 
					23 10 19 
					10 23 24 
					25 10 24 
					11 10 13 
					13 10 25 
					16 12 26 
					13 27 12 
					12 27 28 
					29 12 28 
					12 29 26 
					30 13 25 
					13 31 32 
					13 30 31 
					32 27 13 
					33 14 15 
					14 33 20 
					15 34 33 
					26 15 16 
					35 34 15 
					26 29 15 
					15 29 36 
					35 15 36 
					17 22 37 
					37 18 17 
					37 38 18 
					39 18 38 
					39 19 18 
					23 19 39 
					21 20 40 
					20 33 41 
					20 41 42 
					20 42 40 
					21 40 42 
					42 43 21 
					44 22 21 
					45 21 43 
					45 44 21 
					44 37 22 
					46 23 39 
					25 24 23 
					46 25 23 
					46 44 25 
					47 25 44 
					25 47 48 
					25 48 49 
					30 25 49 
					32 35 27 
					35 36 27 
					27 36 28 
					28 36 29 
					50 31 30 
					30 51 50 
					51 30 49 
					50 32 31 
					52 35 32 
					32 50 52 
					33 34 53 
					41 33 53 
					52 34 35 
					34 52 53 
					54 37 44 
					54 38 37 
					54 55 38 
					55 39 38 
					46 39 55 
					42 41 51 
					51 41 53 
					42 56 43 
					42 51 56 
					51 43 56 
					51 48 43 
					48 57 43 
					43 57 45 
					44 46 55 
					54 44 55 
					47 44 45 
					47 45 57 
					57 48 47 
					49 48 51 
					50 51 53 
					50 53 52 
				</DataArray>
				<DataArray type="Int32" Name="offsets" format="ascii">
					3 6 9 12 15 18 21 24 27 30 33 36 39 42 45 48 51 54 57 60 63 66 69 72 75 78 81 84 87 90 93 96 99 102 105 108 111 114 117 120 123 126 129 132 135 138 141 144 147 150 153 156 159 162 165 168 171 174 177 180 183 186 189 192 195 198 201 204 207 210 213 216 219 222 225 228 231 234 237 240 243 246 249 252 255 258 261 264 267 270 273 276 279 282 285 288 291 294 297 300 303 306 309 312 315 318 321 324 327 330 333 336 
				</DataArray>
			</Polys>
		</Piece>
	</PolyData>
</VTKFile>
