<?xml version="1.0"?>
<VTKFile type="PolyData" version="0.1" byte_order="LittleEndian" compressor="vtkZLibDataCompressor">
	<PolyData>
		<Piece NumberOfPoints="42" NumberOfVerts="0" NumberOfLines="0" NumberOfStrips="0" NumberOfPolys="39">
		<PointData Normals="Normals">
		<DataArray type="Float32" Name="Normals" NumberOfComponents="3" format="ascii">
			 0.852081  0.259441  0.454586
			 0.869466  0.092045 -0.485342
			-0.054193  0.259513 -0.964218
			-0.881941  0.343637 -0.322635
			-0.774908  0.413666  0.477910
			-0.009537  0.410291  0.911905
			 0.849755 -0.243918  0.467355
			 0.863165 -0.368927 -0.344729
			-0.014392 -0.060643  0.998056
			 0.005791 -0.437868 -0.899021
			-0.924687 -0.193368 -0.327968
			-0.851852 -0.062414  0.520051
			 0.890452 -0.084672  0.447132
			 0.944214 -0.178553 -0.276728
			 0.024828  0.036569  0.999023
			 0.162102 -0.341156 -0.925924
			-0.836330  0.030379  0.547384
			-0.920575 -0.146248 -0.362151
			 0.867243  0.109033  0.485800
			 0.950044  0.036283 -0.310001
			-0.006060  0.066073  0.997796
			 0.209958 -0.204729 -0.956035
			-0.787462  0.038941  0.615132
			-0.931948 -0.124302 -0.340619
			 0.744545  0.350820  0.567959
			 0.905197  0.231614 -0.356333
			-0.120914  0.043755  0.991698
			 0.232607 -0.020878 -0.972347
			-0.765745 -0.036535  0.642106
			-0.932167 -0.065361 -0.356079
			 0.721522 -0.042231  0.691102
			 0.880213 -0.181114 -0.438661
			-0.237961 -0.015185  0.971156
			 0.234458 -0.211238 -0.948899
			-0.745489 -0.173387  0.643570
			-0.940462 -0.223548 -0.256042
			 0.219591 -0.870223  0.441012
			 0.308675 -0.950974 -0.019199
			-0.274487 -0.440312  0.854858
			 0.008565 -0.941962 -0.335611
			-0.488420 -0.676546  0.551118
			-0.703164 -0.702340  0.110812
		</DataArray>
	</PointData>
	<Points>
		<DataArray type="Float32" NumberOfComponents="3" format="ascii">
			 0.005344 -0.007385  0.004459
			 0.004440 -0.007579 -0.001841
			-0.000831 -0.007602 -0.006400
			-0.005536 -0.007129 -0.001539
			-0.005110 -0.007017  0.003580
			 0.000657 -0.006820  0.007005
			 0.002916 -0.012147  0.004695
			 0.002889 -0.012208 -0.000645
			 0.000259 -0.011311  0.006569
			-0.000189 -0.012620 -0.005266
			-0.004968 -0.012006 -0.001009
			-0.004565 -0.011727  0.003307
			 0.002050 -0.017248  0.004999
			 0.001460 -0.016860  0.000741
			 0.000007 -0.016026  0.006285
			-0.000594 -0.017621 -0.003222
			-0.003642 -0.016277  0.004544
			-0.004348 -0.016880 -0.000607
			 0.002078 -0.022818  0.006141
			 0.001218 -0.021817  0.001527
			-0.000464 -0.020655  0.006466
			-0.000771 -0.022922 -0.002021
			-0.003133 -0.020956  0.005395
			-0.004204 -0.021727  0.000512
			 0.003361 -0.027791  0.006992
			 0.002022 -0.026706  0.002408
			 0.000103 -0.025305  0.007099
			-0.000032 -0.028133 -0.000466
			-0.002896 -0.025762  0.005405
			-0.004208 -0.026608  0.001344
			 0.006056 -0.032133  0.007209
			 0.003260 -0.031666  0.003288
			 0.000563 -0.029977  0.007660
			 0.000710 -0.033424 -0.001344
			-0.002148 -0.030469  0.005214
			-0.003737 -0.031541  0.002116
			 0.002097 -0.034752  0.008320
			 0.002118 -0.035646  0.005135
			 0.000592 -0.034671  0.008006
			-0.001219 -0.036280  0.002137
			-0.000205 -0.034789  0.006030
			-0.001590 -0.035930  0.002276
		</DataArray>
	</Points>
			<Polys>
				<DataArray type="Int32" Name="connectivity" format="ascii">
					0 1 2 3 4 5 
					1 0 6 7 
					0 5 8 6 
					2 1 7 9 
					3 2 9 10 
					4 3 10 11 
					5 4 11 8 
					7 6 12 13 
					6 8 14 12 
					9 7 13 15 
					8 11 16 14 
					10 9 15 17 
					11 10 17 16 
					13 12 18 19 
					12 14 20 18 
					15 13 19 21 
					14 16 22 20 
					17 15 21 23 
					16 17 23 22 
					19 18 24 25 
					18 20 26 24 
					21 19 25 27 
					20 22 28 26 
					23 21 27 29 
					22 23 29 28 
					25 24 30 31 
					24 26 32 30 
					27 25 31 33 
					26 28 34 32 
					29 27 33 35 
					28 29 35 34 
					31 30 36 37 
					30 32 38 36 
					33 31 37 39 
					32 34 40 38 
					35 33 39 41 
					34 35 41 40 
					37 36 38 40 
					39 37 40 41 
				</DataArray>
				<DataArray type="Int32" Name="offsets" format="ascii">
					6 10 14 18 22 26 30 34 38 42 46 50 54 58 62 66 70 74 78 82 86 90 94 98 102 106 110 114 118 122 126 130 134 138 142 146 150 154 158 
				</DataArray>
			</Polys>
		</Piece>
	</PolyData>
</VTKFile>
