<?xml version="1.0"?>
<VTKFile type="PolyData" version="0.1" byte_order="LittleEndian" compressor="vtkZLibDataCompressor">
	<PolyData>
		<Piece NumberOfPoints="27" NumberOfVerts="0" NumberOfLines="0" NumberOfStrips="0" NumberOfPolys="26">
		<PointData Normals="Normals">
		<DataArray type="Float32" Name="Normals" NumberOfComponents="3" format="ascii">
			-0.187012  0.511988  0.838388
			 0.896616  0.440156  0.048392
			-0.104601  0.639552 -0.761598
			-0.921483  0.388270 -0.010736
			 0.060434 -0.273791  0.959889
			 0.974061 -0.224480  0.028511
			-0.980056 -0.185145 -0.072185
			 0.158426 -0.338683 -0.927467
			 0.014113 -0.155285  0.987769
			 0.969774 -0.243708  0.012031
			-0.981519 -0.157998 -0.107972
			 0.117998 -0.393221 -0.911841
			-0.054970  0.247985  0.967203
			 0.997994 -0.001866 -0.063286
			-0.992285 -0.067894 -0.103735
			 0.053470 -0.276805 -0.959437
			 0.052640  0.394059  0.917577
			 0.967820  0.210130 -0.138453
			-0.981534 -0.191036  0.009793
			 0.060384 -0.292113 -0.954476
			 0.229748  0.292044  0.928400
			 0.990144  0.091230 -0.106266
			-0.871441 -0.412229  0.265815
			 0.186357 -0.700550 -0.688840
			 0.650104 -0.189491  0.735839
			 0.797987 -0.601317  0.040433
			-0.279134 -0.809042  0.517238
		</DataArray>
	</PointData>
	<Points>
		<DataArray type="Float32" NumberOfComponents="3" format="ascii">
			 0.000811 -0.004906  0.005553
			 0.003753 -0.003370 -0.000162
			 0.001497 -0.003687 -0.005040
			-0.003313 -0.003375  0.000023
			 0.000612 -0.007621  0.004762
			 0.003602 -0.006778 -0.000232
			-0.003201 -0.007013 -0.000462
			 0.001364 -0.007492 -0.004578
			 0.000109 -0.010397  0.004524
			 0.002524 -0.009847  0.000582
			-0.002256 -0.010445  0.000264
			 0.000360 -0.010511 -0.002285
			 0.000041 -0.012991  0.004052
			 0.002311 -0.013220  0.001100
			-0.002146 -0.013966  0.001113
			 0.000074 -0.014131 -0.001135
			 0.001237 -0.015633  0.004908
			 0.002266 -0.016417  0.002244
			-0.001896 -0.017518  0.001904
			 0.000598 -0.018302 -0.000435
			 0.002118 -0.018290  0.005512
			 0.003138 -0.019674  0.003017
			-0.000493 -0.020667  0.003099
			 0.001458 -0.021939  0.001025
			 0.002844 -0.020966  0.006020
			 0.002096 -0.022665  0.004168
			 0.001614 -0.023009  0.004969
		</DataArray>
	</Points>
			<Polys>
				<DataArray type="Int32" Name="connectivity" format="ascii">
					0 1 2 3 
					1 0 4 5 
					0 3 6 4 
					2 1 5 7 
					3 2 7 6 
					5 4 8 9 
					4 6 10 8 
					7 5 9 11 
					6 7 11 10 
					9 8 12 13 
					8 10 14 12 
					11 9 13 15 
					10 11 15 14 
					13 12 16 17 
					12 14 18 16 
					15 13 17 19 
					14 15 19 18 
					17 16 20 21 
					16 18 22 20 
					19 17 21 23 
					18 19 23 22 
					21 20 24 25 
					20 22 26 24 
					23 21 25 
					22 23 25 26 
					25 24 26 
				</DataArray>
				<DataArray type="Int32" Name="offsets" format="ascii">
					4 8 12 16 20 24 28 32 36 40 44 48 52 56 60 64 68 72 76 80 84 88 92 95 99 102 
				</DataArray>
			</Polys>
		</Piece>
	</PolyData>
</VTKFile>
