<?xml version="1.0"?>
<VTKFile type="PolyData" version="0.1" byte_order="LittleEndian" compressor="vtkZLibDataCompressor">
	<PolyData>
		<Piece NumberOfPoints="201" NumberOfVerts="0" NumberOfLines="0" NumberOfStrips="0" NumberOfPolys="398">
		<PointData Normals="Normals">
		<DataArray type="Float32" Name="Normals" NumberOfComponents="3" format="ascii">
			-0.015055  0.218487  0.975724
			-0.580595 -0.280082  0.764502
			-0.250981 -0.035354  0.967346
			 0.368842 -0.116862  0.922116
			 0.058619 -0.045404  0.997247
			-0.018966 -0.297451  0.954549
			 0.254472  0.203526  0.945421
			 0.040153  0.356065  0.933598
			-0.142406  0.284256  0.948113
			-0.700710 -0.588308 -0.403608
			-0.775685 -0.629017 -0.051486
			-0.340419 -0.800228  0.493710
			-0.712476  0.203017  0.671686
			-0.974058 -0.182028 -0.134451
			 0.859459 -0.334348  0.386706
			 0.570558 -0.573608  0.587739
			 0.188152 -0.589257  0.785732
			 0.597363  0.431204  0.676181
			 0.948497  0.031710  0.315196
			-0.054961 -0.951663  0.302187
			-0.060442  0.488409  0.870519
			 0.016820  0.464462  0.885433
			 0.073054  0.535546  0.841340
			-0.335415 -0.566123 -0.752995
			-0.682320 -0.592410 -0.428358
			-0.561797 -0.826823 -0.027338
			-0.758472 -0.359707 -0.543443
			-0.352886 -0.504609 -0.787935
			-0.807267  0.248163  0.535477
			-0.988692 -0.134803 -0.065704
			 0.918160 -0.391518  0.060796
			 0.385642 -0.922117  0.031320
			 0.267632 -0.820865  0.504533
			 0.960054  0.219204  0.173912
			 0.972332 -0.038753  0.230365
			 0.627241  0.583455  0.515897
			 0.917296  0.398205  0.000504
			 0.042282 -0.927553 -0.371291
			-0.403782 -0.846476 -0.347041
			-0.211370  0.434766  0.875386
			 0.017068  0.420473  0.907144
			 0.258575  0.509806  0.820511
			 0.453562 -0.611953 -0.647916
			-0.270981 -0.634422 -0.723932
			-0.152914 -0.348252 -0.924845
			-0.122310 -0.368653 -0.921485
			-0.791944 -0.217850 -0.570409
			-0.308481 -0.307331 -0.900215
			-0.842812  0.202074  0.498833
			-0.990065 -0.090912 -0.107271
			 0.678555 -0.734550  0.000188
			 0.971318  0.225266 -0.076135
			 0.972671 -0.109282 -0.204862
			 0.916520  0.395519  0.059631
			 0.874063  0.476526  0.094532
			 0.547745  0.467152  0.694078
			 0.835582  0.465277  0.292096
			-0.324982  0.378815  0.866537
			-0.050518  0.366268  0.929137
			 0.270545  0.353752  0.895358
			 0.526689  0.167216 -0.833449
			 0.082211 -0.189496 -0.978434
			 0.278926  0.159553 -0.946965
			-0.866427 -0.197943 -0.458391
			-0.485433 -0.308521 -0.818028
			-0.873969  0.173539  0.453942
			-0.982531 -0.143673 -0.118284
			 0.833918  0.366741 -0.412409
			 0.623376  0.567970 -0.537412
			 0.937574  0.314161  0.149189
			 0.925878  0.342146 -0.160270
			 0.573946  0.335406  0.747053
			 0.758492  0.366247  0.539029
			-0.414439  0.352032  0.839234
			-0.038207  0.353805  0.934538
			 0.323315  0.342973  0.881951
			 0.573371  0.240572 -0.783180
			-0.076310 -0.251532 -0.964836
			 0.554098 -0.076406 -0.828937
			-0.904868 -0.182324 -0.384672
			-0.705788 -0.277472 -0.651822
			-0.856857  0.220309  0.466112
			-0.992808 -0.063722 -0.101354
			 0.878613  0.074592 -0.471673
			 0.700416  0.008508 -0.713684
			 0.976734  0.158340  0.144632
			 0.971296  0.030135 -0.235956
			 0.649391  0.235727  0.722997
			 0.844096  0.217850  0.489942
			-0.407546  0.346131  0.845044
			-0.048503  0.314492  0.948020
			 0.345712  0.280436  0.895454
			 0.618280 -0.120765 -0.776624
			-0.341165 -0.247051 -0.906958
			 0.326098 -0.192335 -0.925563
			-0.908708 -0.123933 -0.398609
			-0.741818 -0.211027 -0.636532
			-0.809323  0.262168  0.525607
			-0.997931  0.062369 -0.015599
			 0.878430 -0.111864 -0.464594
			 0.748370 -0.160653 -0.643532
			 0.988811  0.056694  0.137980
			 0.977002 -0.055993 -0.205745
			 0.657786  0.138139  0.740429
			 0.895470  0.072405  0.439193
			-0.387770  0.312063  0.867324
			-0.175416  0.256219  0.950569
			 0.189569  0.203471  0.960554
			 0.454686 -0.261468 -0.851408
			-0.440360 -0.232852 -0.867100
			-0.016755 -0.277039 -0.960712
			-0.910566 -0.065969 -0.408065
			-0.651670 -0.194677 -0.733094
			-0.792879  0.256557  0.552739
			-0.988110  0.132703  0.077647
			 0.864428 -0.149455 -0.480028
			 0.679317 -0.229471 -0.697045
			 0.993150 -0.036522  0.110996
			 0.977966 -0.054762 -0.201456
			 0.535641  0.125686  0.835040
			 0.889643  0.014056  0.456439
			-0.448129  0.262657  0.854512
			-0.331988  0.207576  0.920161
			-0.063531  0.171242  0.983178
			 0.282083 -0.304594 -0.909754
			-0.443395 -0.235472 -0.864843
			-0.217051 -0.284992 -0.933632
			-0.930008 -0.025242 -0.366672
			-0.613818 -0.185765 -0.767280
			-0.813677  0.208919  0.542478
			-0.979245  0.142740  0.143891
			 0.878209 -0.158591 -0.451219
			 0.681307 -0.218058 -0.698764
			 0.984386 -0.090420  0.151024
			 0.962055 -0.143240 -0.232235
			 0.380612  0.147511  0.912894
			 0.842433  0.084203  0.532180
			-0.559974  0.217836  0.799360
			-0.398498  0.190835  0.897096
			-0.166010  0.183548  0.968892
			 0.267440 -0.306606 -0.913493
			-0.452217 -0.236439 -0.859998
			-0.258524 -0.272432 -0.926793
			-0.955451 -0.026246 -0.293981
			-0.665181 -0.161486 -0.729010
			-0.849022  0.166047  0.501587
			-0.977849  0.082947  0.192172
			 0.879816 -0.262658 -0.396149
			 0.762718 -0.242836 -0.599410
			 0.956213 -0.087878  0.279167
			 0.957156 -0.253310 -0.140311
			 0.294620  0.030063  0.955141
			 0.772625  0.056989  0.632299
			-0.681262  0.210258  0.701194
			-0.476738  0.170328  0.862386
			-0.180500  0.172511  0.968328
			 0.309675 -0.342718 -0.886930
			-0.489453 -0.259294 -0.832588
			-0.233679 -0.280849 -0.930869
			-0.975359 -0.070839 -0.208941
			-0.747615 -0.166439 -0.642938
			-0.875520  0.189069  0.444654
			-0.974774  0.053641  0.216650
			 0.865889 -0.343339 -0.363807
			 0.725219 -0.374810 -0.577560
			 0.899384 -0.219785  0.377892
			 0.972508 -0.227584 -0.049328
			 0.311897 -0.012938  0.950028
			 0.603594 -0.294549  0.740888
			-0.750909  0.161504  0.640353
			-0.230862  0.596891  0.768391
			-0.080523  0.203004  0.975861
			 0.255380 -0.411642 -0.874832
			-0.571380 -0.325796 -0.753247
			-0.273602 -0.372929 -0.886604
			-0.988261  0.009954 -0.152448
			-0.823249 -0.247983 -0.510653
			-0.712632  0.643392  0.279646
			-0.943258  0.254210  0.213637
			 0.842363 -0.387934 -0.374075
			 0.651267 -0.408125 -0.639754
			 0.928608 -0.230294  0.290949
			 0.935448 -0.353109 -0.015865
			 0.546647  0.512226  0.662421
			 0.859574 -0.158675  0.485752
			 0.077610  0.984756 -0.155668
			 0.175850 -0.449562 -0.875768
			-0.619482 -0.245123 -0.745759
			-0.302055 -0.439684 -0.845837
			-0.834292  0.497714 -0.237143
			-0.894145 -0.044640 -0.445548
			 0.775693 -0.360803 -0.517805
			 0.503027 -0.425390 -0.752334
			 0.938604  0.336312  0.076925
			 0.979261 -0.127848 -0.157171
			 0.718072  0.341989 -0.606149
			-0.193164  0.328551 -0.924522
			-0.655416  0.341918 -0.673440
			 0.025504 -0.319856 -0.947123
			-0.290250 -0.134151 -0.947501
			 0.217012 -0.226195 -0.949601
		</DataArray>
	</PointData>
	<Points>
		<DataArray type="Float32" NumberOfComponents="3" format="ascii">
			-0.005426 -0.067276  0.047840
			-0.010469 -0.070810  0.049770
			-0.006658 -0.072066  0.048855
			 0.002330 -0.069117  0.049909
			-0.002367 -0.071399  0.048760
			-0.005575 -0.073921  0.049886
			-0.007896 -0.065617  0.048054
			-0.005353 -0.060553  0.046186
			-0.001342 -0.064769  0.047874
			-0.007585 -0.072316  0.039443
			-0.007086 -0.074011  0.045438
			-0.005161 -0.076258  0.047923
			-0.010335 -0.063829  0.048421
			-0.009441 -0.068365  0.043333
			 0.003430 -0.071297  0.047390
			 0.000940 -0.073020  0.047777
			-0.000799 -0.075281  0.047405
			 0.003083 -0.062128  0.047561
			 0.003245 -0.066935  0.047224
			-0.002666 -0.076166  0.045090
			-0.008274 -0.059108  0.045539
			-0.006290 -0.054284  0.043332
			-0.002037 -0.058377  0.045069
			-0.003550 -0.072612  0.037080
			-0.005276 -0.074680  0.040925
			-0.005131 -0.076658  0.044618
			-0.009375 -0.066504  0.035698
			-0.005887 -0.069450  0.036472
			-0.011118 -0.057765  0.044216
			-0.010191 -0.061936  0.040515
			 0.004871 -0.072106  0.039690
			-0.000242 -0.076969  0.041279
			-0.001200 -0.076384  0.046404
			 0.004136 -0.065198  0.044034
			 0.004581 -0.068595  0.042248
			 0.000411 -0.056542  0.043197
			 0.002268 -0.060574  0.044043
			 0.000157 -0.076503  0.039331
			-0.004837 -0.077134  0.042557
			-0.009031 -0.052850  0.042118
			-0.007275 -0.048040  0.040304
			-0.003898 -0.052322  0.041650
			 0.004544 -0.072581  0.035109
			-0.000922 -0.074707  0.038519
			-0.003037 -0.066370  0.033665
			 0.000544 -0.069298  0.034771
			-0.009938 -0.059648  0.033726
			-0.006787 -0.063019  0.033713
			-0.011442 -0.051310  0.040620
			-0.010703 -0.055316  0.037721
			 0.002332 -0.074540  0.038852
			 0.005887 -0.065779  0.037880
			 0.004880 -0.069024  0.036478
			 0.001441 -0.058428  0.041379
			 0.003324 -0.062217  0.040087
			-0.002440 -0.050421  0.039768
			-0.000296 -0.054351  0.040774
			-0.009573 -0.046429  0.038957
			-0.007559 -0.041548  0.037810
			-0.005258 -0.045854  0.038823
			 0.004218 -0.065628  0.033232
			-0.004796 -0.059554  0.031764
			-0.001185 -0.063164  0.033304
			-0.010315 -0.052541  0.032320
			-0.008072 -0.056204  0.031885
			-0.012015 -0.044820  0.037093
			-0.011213 -0.048567  0.035175
			 0.001833 -0.059463  0.037054
			 0.002703 -0.062994  0.035680
			-0.000597 -0.052014  0.038753
			 0.000294 -0.055946  0.037845
			-0.003759 -0.043409  0.037411
			-0.002079 -0.047883  0.037779
			-0.009664 -0.039866  0.036119
			-0.007147 -0.035041  0.035395
			-0.005463 -0.039144  0.036239
			-0.001127 -0.061105  0.034555
			-0.007239 -0.053071  0.029731
			-0.004037 -0.056921  0.032123
			-0.011082 -0.045599  0.030669
			-0.009489 -0.049369  0.030335
			-0.011934 -0.038055  0.034179
			-0.011643 -0.041799  0.032667
			-0.001501 -0.053880  0.034196
			-0.000946 -0.057101  0.034562
			-0.001519 -0.045688  0.035185
			-0.001537 -0.049760  0.034872
			-0.003387 -0.036578  0.034341
			-0.002632 -0.041163  0.034784
			-0.009139 -0.033178  0.033601
			-0.006362 -0.028563  0.032981
			-0.004845 -0.032433  0.033648
			-0.002988 -0.053955  0.032441
			-0.009319 -0.046263  0.028618
			-0.005891 -0.050070  0.030085
			-0.011543 -0.038721  0.028726
			-0.010516 -0.042446  0.028856
			-0.011113 -0.031055  0.031851
			-0.011503 -0.034921  0.030344
			-0.002530 -0.047460  0.031354
			-0.002759 -0.050571  0.031885
			-0.001863 -0.038977  0.032197
			-0.002120 -0.043169  0.031890
			-0.002483 -0.029549  0.031876
			-0.002376 -0.034241  0.032184
			-0.008352 -0.026404  0.031363
			-0.005799 -0.021941  0.030945
			-0.004204 -0.025549  0.031647
			-0.004019 -0.046991  0.029548
			-0.010121 -0.039202  0.027411
			-0.007061 -0.043211  0.028105
			-0.011423 -0.031852  0.026619
			-0.010746 -0.035492  0.027071
			-0.010135 -0.024058  0.029674
			-0.010885 -0.027990  0.028177
			-0.002568 -0.040551  0.028822
			-0.003475 -0.043848  0.029142
			-0.001771 -0.031862  0.030323
			-0.002221 -0.036227  0.029524
			-0.002171 -0.022144  0.030787
			-0.001832 -0.027078  0.030416
			-0.007658 -0.019541  0.029407
			-0.005441 -0.015164  0.029393
			-0.004028 -0.018506  0.030251
			-0.004783 -0.040389  0.026843
			-0.009897 -0.032194  0.025528
			-0.007402 -0.036313  0.026052
			-0.010870 -0.024996  0.024565
			-0.010348 -0.028601  0.024996
			-0.009256 -0.017003  0.027615
			-0.010139 -0.021039  0.026130
			-0.002680 -0.033517  0.026753
			-0.003709 -0.036981  0.026711
			-0.000905 -0.024758  0.028677
			-0.001922 -0.029196  0.027639
			-0.002700 -0.014776  0.029878
			-0.001387 -0.019881  0.028938
			-0.007182 -0.012613  0.027671
			-0.004963 -0.008314  0.028263
			-0.003831 -0.011356  0.028991
			-0.004806 -0.033467  0.024426
			-0.009203 -0.025361  0.023270
			-0.006978 -0.029360  0.023853
			-0.010295 -0.018101  0.022665
			-0.009707 -0.021755  0.022858
			-0.009066 -0.009970  0.025411
			-0.009673 -0.014055  0.024151
			-0.002332 -0.026646  0.024803
			-0.003456 -0.030012  0.024543
			 0.000228 -0.017848  0.026411
			-0.000900 -0.022333  0.025563
			-0.002219 -0.007171  0.028429
			-0.000765 -0.012695  0.027243
			-0.007080 -0.005708  0.025736
			-0.004998 -0.001507  0.026843
			-0.002643 -0.004500  0.027940
			-0.004007 -0.026419  0.022188
			-0.008459 -0.018562  0.020933
			-0.006066 -0.022464  0.021560
			-0.010075 -0.011144  0.020915
			-0.009191 -0.014916  0.020699
			-0.009294 -0.003041  0.022426
			-0.009683 -0.007137  0.021811
			-0.000592 -0.020082  0.022363
			-0.002381 -0.023166  0.022301
			 0.001630 -0.010983  0.024255
			 0.000537 -0.015627  0.023158
			 0.001607 -0.001007  0.028226
			 0.001385 -0.005852  0.026257
			-0.006148  0.001552  0.024832
			-0.003916  0.004935  0.026688
			-0.000771  0.001370  0.027107
			-0.002595 -0.019516  0.019851
			-0.007936 -0.011859  0.018283
			-0.005217 -0.015751  0.018913
			-0.010295 -0.004393  0.018492
			-0.009085 -0.008223  0.018135
			-0.006383  0.005821  0.023370
			-0.008813  0.000129  0.020195
			 0.000881 -0.013596  0.019604
			-0.001046 -0.016565  0.019601
			 0.004523 -0.004246  0.024117
			 0.002455 -0.009063  0.021094
			 0.004222  0.003059  0.026671
			 0.003886  0.000113  0.025545
			-0.003102  0.003873  0.019713
			-0.001878 -0.013068  0.016586
			-0.008034 -0.005496  0.014852
			-0.005052 -0.009207  0.015794
			-0.009280  0.002130  0.016492
			-0.008998 -0.001557  0.015997
			 0.002788 -0.007426  0.016399
			-0.000142 -0.010124  0.016511
			 0.005190  0.002647  0.023166
			 0.003933 -0.002393  0.019570
			 0.003671  0.002633  0.012730
			-0.003661  0.003251  0.012264
			-0.008383  0.001530  0.014154
			-0.002361 -0.006406  0.013455
			-0.005610 -0.002144  0.013679
			-0.000907 -0.003276  0.013015
		</DataArray>
	</Points>
			<Polys>
				<DataArray type="Int32" Name="connectivity" format="ascii">
					0 1 2 
					3 0 4 
					5 0 2 
					1 0 6 
					0 7 6 
					0 5 4 
					7 0 8 
					0 3 8 
					1 9 10 
					1 11 2 
					12 1 6 
					11 1 10 
					9 1 13 
					1 12 13 
					11 5 2 
					14 3 15 
					3 16 15 
					17 3 18 
					3 14 18 
					16 3 4 
					3 17 8 
					5 16 4 
					5 11 19 
					16 5 19 
					7 12 6 
					17 7 8 
					12 7 20 
					7 21 20 
					21 7 22 
					7 17 22 
					9 23 24 
					9 25 10 
					26 9 13 
					25 9 24 
					23 9 27 
					9 26 27 
					25 11 10 
					11 25 19 
					12 26 13 
					28 12 20 
					26 12 29 
					12 28 29 
					30 14 31 
					32 31 14 
					33 14 34 
					14 30 34 
					32 14 15 
					14 33 18 
					16 32 15 
					32 16 19 
					33 17 18 
					35 17 36 
					17 33 36 
					17 35 22 
					31 32 19 
					37 31 19 
					38 37 19 
					25 38 19 
					21 28 20 
					35 21 22 
					28 21 39 
					21 40 39 
					40 21 41 
					21 35 41 
					23 42 43 
					23 38 24 
					44 23 27 
					38 23 43 
					42 23 45 
					23 44 45 
					38 25 24 
					26 44 27 
					46 26 29 
					44 26 47 
					26 46 47 
					28 46 29 
					48 28 39 
					46 28 49 
					28 48 49 
					42 30 50 
					30 31 50 
					51 30 52 
					30 42 52 
					30 51 34 
					31 37 50 
					51 33 34 
					53 33 54 
					33 51 54 
					33 53 36 
					53 35 36 
					55 35 56 
					35 53 56 
					35 55 41 
					42 37 43 
					37 38 43 
					37 42 50 
					40 48 39 
					55 40 41 
					48 40 57 
					40 58 57 
					58 40 59 
					40 55 59 
					60 42 45 
					42 60 52 
					44 60 45 
					61 44 47 
					60 44 62 
					44 61 62 
					46 61 47 
					63 46 49 
					61 46 64 
					46 63 64 
					48 63 49 
					65 48 57 
					63 48 66 
					48 65 66 
					60 51 52 
					67 51 68 
					51 60 68 
					51 67 54 
					67 53 54 
					69 53 70 
					53 67 70 
					53 69 56 
					69 55 56 
					71 55 72 
					55 69 72 
					55 71 59 
					58 65 57 
					71 58 59 
					65 58 73 
					58 74 73 
					74 58 75 
					58 71 75 
					76 60 62 
					60 76 68 
					61 76 62 
					77 61 64 
					76 61 78 
					61 77 78 
					63 77 64 
					79 63 66 
					77 63 80 
					63 79 80 
					65 79 66 
					81 65 73 
					79 65 82 
					65 81 82 
					76 67 68 
					83 67 84 
					67 76 84 
					67 83 70 
					83 69 70 
					85 69 86 
					69 83 86 
					69 85 72 
					85 71 72 
					87 71 88 
					71 85 88 
					71 87 75 
					74 81 73 
					87 74 75 
					81 74 89 
					74 90 89 
					90 74 91 
					74 87 91 
					92 76 78 
					76 92 84 
					77 92 78 
					93 77 80 
					92 77 94 
					77 93 94 
					79 93 80 
					95 79 82 
					93 79 96 
					79 95 96 
					81 95 82 
					97 81 89 
					95 81 98 
					81 97 98 
					92 83 84 
					99 83 100 
					83 92 100 
					83 99 86 
					99 85 86 
					101 85 102 
					85 99 102 
					85 101 88 
					101 87 88 
					103 87 104 
					87 101 104 
					87 103 91 
					90 97 89 
					103 90 91 
					97 90 105 
					90 106 105 
					106 90 107 
					90 103 107 
					108 92 94 
					92 108 100 
					93 108 94 
					109 93 96 
					108 93 110 
					93 109 110 
					95 109 96 
					111 95 98 
					109 95 112 
					95 111 112 
					97 111 98 
					113 97 105 
					111 97 114 
					97 113 114 
					108 99 100 
					115 99 116 
					99 108 116 
					99 115 102 
					115 101 102 
					117 101 118 
					101 115 118 
					101 117 104 
					117 103 104 
					119 103 120 
					103 117 120 
					103 119 107 
					106 113 105 
					119 106 107 
					113 106 121 
					106 122 121 
					122 106 123 
					106 119 123 
					124 108 110 
					108 124 116 
					109 124 110 
					125 109 112 
					124 109 126 
					109 125 126 
					111 125 112 
					127 111 114 
					125 111 128 
					111 127 128 
					113 127 114 
					129 113 121 
					127 113 130 
					113 129 130 
					124 115 116 
					131 115 132 
					115 124 132 
					115 131 118 
					131 117 118 
					133 117 134 
					117 131 134 
					117 133 120 
					133 119 120 
					135 119 136 
					119 133 136 
					119 135 123 
					122 129 121 
					135 122 123 
					129 122 137 
					122 138 137 
					138 122 139 
					122 135 139 
					140 124 126 
					124 140 132 
					125 140 126 
					141 125 128 
					140 125 142 
					125 141 142 
					127 141 128 
					143 127 130 
					141 127 144 
					127 143 144 
					129 143 130 
					145 129 137 
					143 129 146 
					129 145 146 
					140 131 132 
					147 131 148 
					131 140 148 
					131 147 134 
					147 133 134 
					149 133 150 
					133 147 150 
					133 149 136 
					149 135 136 
					151 135 152 
					135 149 152 
					135 151 139 
					138 145 137 
					151 138 139 
					145 138 153 
					138 154 153 
					154 138 155 
					138 151 155 
					156 140 142 
					140 156 148 
					141 156 142 
					157 141 144 
					156 141 158 
					141 157 158 
					143 157 144 
					159 143 146 
					157 143 160 
					143 159 160 
					145 159 146 
					161 145 153 
					159 145 162 
					145 161 162 
					156 147 148 
					163 147 164 
					147 156 164 
					147 163 150 
					163 149 150 
					165 149 166 
					149 163 166 
					149 165 152 
					165 151 152 
					167 151 168 
					151 165 168 
					151 167 155 
					154 161 153 
					167 154 155 
					161 154 169 
					154 170 169 
					170 154 171 
					154 167 171 
					172 156 158 
					156 172 164 
					157 172 158 
					173 157 160 
					172 157 174 
					157 173 174 
					159 173 160 
					175 159 162 
					173 159 176 
					159 175 176 
					161 175 162 
					177 161 169 
					175 161 178 
					161 177 178 
					172 163 164 
					179 163 180 
					163 172 180 
					163 179 166 
					179 165 166 
					181 165 182 
					165 179 182 
					165 181 168 
					181 167 168 
					183 167 184 
					167 181 184 
					167 183 171 
					170 177 169 
					183 170 171 
					185 177 170 
					185 170 183 
					186 172 174 
					172 186 180 
					173 186 174 
					187 173 176 
					186 173 188 
					173 187 188 
					175 187 176 
					189 175 178 
					187 175 190 
					175 189 190 
					177 189 178 
					185 189 177 
					186 179 180 
					191 179 192 
					179 186 192 
					179 191 182 
					191 181 182 
					193 181 194 
					181 191 194 
					181 193 184 
					193 183 184 
					185 183 193 
					185 193 195 
					185 195 196 
					185 196 197 
					185 197 189 
					198 186 188 
					186 198 192 
					187 198 188 
					197 187 190 
					198 187 199 
					187 197 199 
					189 197 190 
					198 191 192 
					195 191 200 
					191 198 200 
					191 195 194 
					195 193 194 
					196 195 200 
					197 196 199 
					196 198 199 
					198 196 200 
				</DataArray>
				<DataArray type="Int32" Name="offsets" format="ascii">
					3 6 9 12 15 18 21 24 27 30 33 36 39 42 45 48 51 54 57 60 63 66 69 72 75 78 81 84 87 90 93 96 99 102 105 108 111 114 117 120 123 126 129 132 135 138 141 144 147 150 153 156 159 162 165 168 171 174 177 180 183 186 189 192 195 198 201 204 207 210 213 216 219 222 225 228 231 234 237 240 243 246 249 252 255 258 261 264 267 270 273 276 279 282 285 288 291 294 297 300 303 306 309 312 315 318 321 324 327 330 333 336 339 342 345 348 351 354 357 360 363 366 369 372 375 378 381 384 387 390 393 396 399 402 405 408 411 414 417 420 423 426 429 432 435 438 441 444 447 450 453 456 459 462 465 468 471 474 477 480 483 486 489 492 495 498 501 504 507 510 513 516 519 522 525 528 531 534 537 540 543 546 549 552 555 558 561 564 567 570 573 576 579 582 585 588 591 594 597 600 603 606 609 612 615 618 621 624 627 630 633 636 639 642 645 648 651 654 657 660 663 666 669 672 675 678 681 684 687 690 693 696 699 702 705 708 711 714 717 720 723 726 729 732 735 738 741 744 747 750 753 756 759 762 765 768 771 774 777 780 783 786 789 792 795 798 801 804 807 810 813 816 819 822 825 828 831 834 837 840 843 846 849 852 855 858 861 864 867 870 873 876 879 882 885 888 891 894 897 900 903 906 909 912 915 918 921 924 927 930 933 936 939 942 945 948 951 954 957 960 963 966 969 972 975 978 981 984 987 990 993 996 999 1002 1005 1008 1011 1014 1017 1020 1023 1026 1029 1032 1035 1038 1041 1044 1047 1050 1053 1056 1059 1062 1065 1068 1071 1074 1077 1080 1083 1086 1089 1092 1095 1098 1101 1104 1107 1110 1113 1116 1119 1122 1125 1128 1131 1134 1137 1140 1143 1146 1149 1152 1155 1158 1161 1164 1167 1170 1173 1176 1179 1182 1185 1188 1191 1194 
				</DataArray>
			</Polys>
		</Piece>
	</PolyData>
</VTKFile>
