<?xml version="1.0"?>
<VTKFile type="PolyData" version="0.1" byte_order="LittleEndian" compressor="vtkZLibDataCompressor">
	<PolyData>
		<Piece NumberOfPoints="27" NumberOfVerts="0" NumberOfLines="0" NumberOfStrips="0" NumberOfPolys="26">
		<PointData Normals="Normals">
		<DataArray type="Float32" Name="Normals" NumberOfComponents="3" format="ascii">
			-0.317692  0.339867  0.885190
			 0.873138  0.450823  0.185441
			-0.159587  0.727356 -0.667447
			-0.939664  0.342089  0.002473
			 0.022252 -0.390996  0.920123
			 0.981084 -0.186533  0.051770
			-0.973030 -0.164635 -0.161580
			 0.234050 -0.140810 -0.961974
			-0.031689 -0.291729  0.955976
			 0.979021 -0.200967  0.033618
			-0.971018 -0.133829 -0.198026
			 0.196189 -0.191694 -0.961646
			-0.115907  0.066751  0.991015
			 0.999600  0.026439  0.010024
			-0.982207 -0.053394 -0.180053
			 0.124862 -0.083733 -0.988635
			-0.006489  0.204817  0.978779
			 0.973183  0.227715 -0.032554
			-0.978575 -0.184526 -0.091332
			 0.129719 -0.099805 -0.986515
			 0.178243  0.114463  0.977306
			 0.993124  0.114296 -0.025315
			-0.880071 -0.454917  0.136106
			 0.256932 -0.538036 -0.802809
			 0.629653 -0.261893  0.731403
			 0.835124 -0.550021 -0.006727
			-0.265170 -0.886063  0.380234
		</DataArray>
	</PointData>
	<Points>
		<DataArray type="Float32" NumberOfComponents="3" format="ascii">
			-0.002517 -0.170037  0.031507
			 0.000764 -0.166936  0.026384
			-0.001240 -0.166718  0.021363
			-0.006424 -0.167838  0.026044
			-0.002612 -0.172999  0.030220
			 0.000694 -0.170804  0.025682
			-0.006198 -0.171863  0.024912
			-0.001314 -0.171126  0.021114
			-0.003044 -0.176165  0.029442
			-0.000378 -0.174556  0.025845
			-0.005201 -0.175764  0.025070
			-0.002397 -0.175072  0.022744
			-0.003027 -0.179031  0.028500
			-0.000546 -0.178496  0.025723
			-0.005057 -0.179888  0.025270
			-0.002669 -0.179411  0.023194
			-0.001801 -0.182028  0.028948
			-0.000584 -0.182325  0.026262
			-0.004767 -0.184022  0.025419
			-0.002082 -0.184196  0.023160
			-0.000879 -0.185037  0.029123
			 0.000331 -0.186044  0.026492
			-0.003339 -0.187628  0.026124
			-0.001208 -0.188468  0.023997
			-0.000110 -0.188070  0.029188
			-0.000724 -0.189763  0.027002
			-0.001252 -0.190352  0.027691
		</DataArray>
	</Points>
			<Polys>
				<DataArray type="Int32" Name="connectivity" format="ascii">
					0 1 2 3 
					1 0 4 5 
					0 3 6 4 
					2 1 5 7 
					3 2 7 6 
					5 4 8 9 
					4 6 10 8 
					7 5 9 11 
					6 7 11 10 
					9 8 12 13 
					8 10 14 12 
					11 9 13 15 
					10 11 15 14 
					13 12 16 17 
					12 14 18 16 
					15 13 17 19 
					14 15 19 18 
					17 16 20 21 
					16 18 22 20 
					19 17 21 23 
					18 19 23 22 
					21 20 24 25 
					20 22 26 24 
					23 21 25 
					22 23 25 26 
					25 24 26 
				</DataArray>
				<DataArray type="Int32" Name="offsets" format="ascii">
					4 8 12 16 20 24 28 32 36 40 44 48 52 56 60 64 68 72 76 80 84 88 92 95 99 102 
				</DataArray>
			</Polys>
		</Piece>
	</PolyData>
</VTKFile>
