<?xml version="1.0"?>
<VTKFile type="PolyData" version="0.1" byte_order="LittleEndian" compressor="vtkZLibDataCompressor">
	<PolyData>
		<Piece NumberOfPoints="106" NumberOfVerts="0" NumberOfLines="0" NumberOfStrips="0" NumberOfPolys="113">
		<PointData Normals="Normals">
		<DataArray type="Float32" Name="Normals" NumberOfComponents="3" format="ascii">
			 0.092296 -0.316544  0.944077
			-0.494225 -0.688275  0.531055
			 0.166479 -0.974984  0.147276
			 0.254771 -0.726620  0.638056
			 0.031026 -0.140995  0.989524
			-0.745610 -0.217899  0.629751
			 0.373998 -0.460189  0.805203
			-0.123365 -0.855462  0.502958
			 0.611104 -0.023843  0.791191
			-0.679955 -0.281528 -0.677055
			-0.264646 -0.780315 -0.566632
			-0.756246 -0.048073 -0.652519
			-0.055047 -0.978020 -0.201115
			-0.012737  0.005211  0.999905
			-0.835781  0.004632  0.549043
			 0.581689  0.180910  0.793038
			-0.826808  0.000787 -0.562484
			 0.832358 -0.542711  0.112447
			 0.109081 -0.992857  0.048338
			 0.962466  0.123281  0.241789
			 0.904360  0.350339  0.243711
			-0.230457 -0.049130 -0.971842
			-0.070814 -0.693622 -0.716850
			-0.025244  0.405995 -0.913526
			 0.042510  0.448029 -0.893008
			 0.297664 -0.861123 -0.412144
			 0.012062 -0.708321 -0.705787
			-0.035498 -0.044323  0.998386
			-0.867567 -0.036928  0.495947
			 0.557417  0.059842  0.828073
			-0.886163 -0.043769 -0.461302
			 0.947014  0.215632  0.238047
			-0.228904  0.105253 -0.967742
			 0.891657 -0.416445 -0.177542
			 0.960148  0.229936 -0.158888
			 0.847476  0.453434 -0.276010
			 0.880731  0.266969 -0.391204
			 0.446609 -0.210237 -0.869678
			 0.622428  0.517605 -0.587085
			 0.641474  0.597184 -0.481543
			 0.562440  0.276894 -0.779097
			-0.060402 -0.109318  0.992170
			-0.878408 -0.070691  0.472655
			 0.620302 -0.086567  0.779572
			-0.905713  0.009121 -0.423794
			 0.983584  0.039969  0.175971
			-0.420106  0.099234 -0.902033
			 0.869540  0.125974 -0.477526
			 0.354677  0.140110 -0.924432
			-0.031228 -0.149493  0.988269
			-0.841961 -0.075723  0.534198
			 0.675170 -0.163271  0.719367
			-0.906391  0.092616 -0.412163
			 0.993057 -0.041018  0.110248
			-0.453956  0.163922 -0.875816
			 0.869424  0.103572 -0.483089
			 0.254586  0.154462 -0.954635
			-0.105062 -0.171821  0.979510
			-0.802865 -0.061030  0.593028
			 0.614714 -0.219921  0.757471
			-0.918794  0.135270 -0.370835
			 0.992791 -0.099845  0.066310
			-0.446590  0.205843 -0.870739
			 0.887584  0.069218 -0.455416
			 0.303516  0.190832 -0.933521
			-0.274635 -0.190073  0.942575
			-0.803552 -0.051003  0.593045
			 0.452695 -0.251678  0.855409
			-0.942743  0.138592 -0.303360
			 0.983740 -0.140618  0.111728
			-0.444052  0.232730 -0.865248
			 0.878915 -0.013084 -0.476800
			 0.334126  0.168162 -0.927406
			-0.305151 -0.235576  0.922706
			-0.831148 -0.071408  0.551447
			 0.423334 -0.267798  0.865490
			-0.965678  0.096386 -0.241195
			 0.970188 -0.162417  0.179879
			-0.459027  0.210932 -0.863019
			 0.827138 -0.049555 -0.559810
			 0.283492  0.134965 -0.949430
			-0.252166 -0.254728  0.933556
			-0.884599 -0.074138  0.460421
			 0.440657 -0.413084  0.796984
			-0.955203  0.099371 -0.278771
			 0.935653 -0.339594  0.096068
			-0.526974  0.137915 -0.838617
			 0.807183 -0.043825 -0.588672
			 0.244643  0.093990 -0.965047
			-0.176905 -0.328980  0.927619
			-0.880123 -0.168917  0.443678
			 0.379438 -0.430093  0.819174
			-0.946613  0.096064 -0.307728
			 0.914667 -0.380299  0.136957
			-0.547671  0.144489 -0.824123
			 0.776025 -0.095839 -0.623378
			 0.199019  0.063463 -0.977939
			 0.057994  0.471781  0.879806
			-0.442086  0.676635  0.588834
			 0.215537  0.390736  0.894913
			-0.575144  0.817832 -0.019002
			 0.593596  0.606937  0.528460
			-0.194000  0.892761 -0.406623
			 0.646297  0.668956 -0.367149
			 0.294105  0.787895 -0.541039
			 0.126913  0.956059  0.264280
		</DataArray>
	</PointData>
	<Points>
		<DataArray type="Float32" NumberOfComponents="3" format="ascii">
			-0.001811 -0.063740 -0.031161
			-0.005943 -0.066914 -0.031163
			-0.001595 -0.069919 -0.034627
			-0.001934 -0.069089 -0.032302
			-0.001749 -0.058491 -0.029708
			-0.005832 -0.061608 -0.029391
			 0.004545 -0.065812 -0.030400
			 0.001980 -0.069048 -0.034614
			 0.005163 -0.060109 -0.029341
			-0.003580 -0.063896 -0.039159
			-0.001570 -0.068896 -0.037153
			-0.005045 -0.058451 -0.039564
			 0.000450 -0.068745 -0.036622
			-0.002516 -0.053082 -0.029294
			-0.006473 -0.055810 -0.030027
			 0.002975 -0.054576 -0.030278
			-0.005505 -0.052986 -0.038288
			 0.005446 -0.066316 -0.033062
			 0.001651 -0.069409 -0.035765
			 0.006026 -0.060827 -0.033075
			 0.003819 -0.055154 -0.032322
			-0.000273 -0.063172 -0.040971
			-0.001329 -0.068414 -0.038817
			 0.000148 -0.057563 -0.040970
			-0.001292 -0.052153 -0.039658
			 0.002436 -0.067801 -0.039669
			 0.002763 -0.066718 -0.040883
			-0.003322 -0.047623 -0.029015
			-0.006737 -0.049983 -0.030072
			 0.000639 -0.049042 -0.030334
			-0.005813 -0.047572 -0.036507
			 0.002150 -0.049735 -0.031688
			-0.003293 -0.046920 -0.038571
			 0.006626 -0.063851 -0.038900
			 0.007460 -0.058813 -0.037716
			 0.004139 -0.054166 -0.035829
			 0.001409 -0.049225 -0.035687
			 0.006358 -0.062380 -0.042372
			 0.006093 -0.056887 -0.040989
			 0.001714 -0.054309 -0.038265
			 0.000190 -0.048588 -0.036975
			-0.003553 -0.042203 -0.028256
			-0.007205 -0.044160 -0.030054
			-0.000439 -0.043320 -0.029273
			-0.006440 -0.042174 -0.034966
			 0.001395 -0.044007 -0.031763
			-0.004995 -0.041825 -0.036697
			 0.000567 -0.043718 -0.035206
			-0.000653 -0.042689 -0.036317
			-0.003214 -0.036804 -0.027434
			-0.007137 -0.038388 -0.029489
			-0.000133 -0.037443 -0.028793
			-0.006816 -0.036706 -0.033660
			 0.001115 -0.038244 -0.031272
			-0.005651 -0.036520 -0.034792
			 0.000538 -0.037997 -0.034310
			-0.001278 -0.037110 -0.035665
			-0.002570 -0.031425 -0.026623
			-0.006463 -0.032686 -0.028411
			 0.000609 -0.031667 -0.027802
			-0.006717 -0.031180 -0.032475
			 0.001191 -0.032641 -0.029824
			-0.005466 -0.030986 -0.033392
			 0.000447 -0.032373 -0.033033
			-0.001295 -0.031427 -0.034682
			-0.002107 -0.026096 -0.025484
			-0.005660 -0.027045 -0.027226
			 0.000866 -0.026173 -0.025677
			-0.006263 -0.025683 -0.031258
			 0.001902 -0.027135 -0.028216
			-0.004896 -0.025426 -0.032329
			 0.000734 -0.026907 -0.031735
			-0.000639 -0.025727 -0.033521
			-0.001812 -0.020850 -0.023937
			-0.004938 -0.021410 -0.025934
			 0.000434 -0.020775 -0.023437
			-0.005790 -0.020221 -0.029914
			 0.002833 -0.021518 -0.027129
			-0.004285 -0.019858 -0.031337
			 0.001828 -0.021421 -0.030690
			 0.000447 -0.020125 -0.032095
			-0.001419 -0.015720 -0.022059
			-0.004782 -0.015734 -0.024754
			 0.000626 -0.014676 -0.022076
			-0.005608 -0.014774 -0.028439
			 0.003982 -0.015976 -0.025981
			-0.003856 -0.014232 -0.030607
			 0.002670 -0.015807 -0.029790
			 0.000654 -0.014343 -0.031046
			-0.001262 -0.010348 -0.020843
			-0.005751 -0.009986 -0.023754
			 0.004381 -0.011104 -0.021226
			-0.005015 -0.009254 -0.027325
			 0.005546 -0.010916 -0.023409
			-0.003435 -0.008625 -0.029952
			 0.004178 -0.010324 -0.028201
			 0.000843 -0.008678 -0.030728
			 0.000245 -0.006655 -0.019720
			-0.005237 -0.005624 -0.021115
			 0.005394 -0.007390 -0.020698
			-0.004954 -0.003958 -0.026401
			 0.006902 -0.006223 -0.021413
			-0.003258 -0.003819 -0.029344
			 0.004716 -0.005823 -0.028564
			 0.001859 -0.004630 -0.029786
			 0.000681 -0.005832 -0.024554
		</DataArray>
	</Points>
			<Polys>
				<DataArray type="Int32" Name="connectivity" format="ascii">
					0 1 2 3 
					4 5 1 0 
					6 0 3 7 
					8 4 0 6 
					1 9 10 2 
					5 11 9 1 
					2 10 12 
					3 2 12 
					7 3 12 
					13 14 5 4 
					15 13 4 8 
					14 16 11 5 
					17 6 7 18 
					19 8 6 17 
					18 7 12 
					20 15 8 19 
					9 21 22 10 
					11 23 21 9 
					10 22 12 
					16 24 23 11 
					25 18 12 
					26 25 12 
					22 26 12 
					27 28 14 13 
					29 27 13 15 
					28 30 16 14 
					31 29 15 20 
					30 32 24 16 
					33 17 25 
					34 19 17 33 
					18 25 17 
					35 20 19 34 
					36 31 20 35 
					21 37 26 22 
					23 38 37 21 
					24 39 38 23 
					32 40 39 24 
					37 33 25 26 
					41 42 28 27 
					43 41 27 29 
					42 44 30 28 
					45 43 29 31 
					44 46 32 30 
					47 45 31 36 
					46 48 40 32 
					38 34 33 37 
					39 35 34 38 
					40 36 35 39 
					48 47 36 40 
					49 50 42 41 
					51 49 41 43 
					50 52 44 42 
					53 51 43 45 
					52 54 46 44 
					55 53 45 47 
					54 56 48 46 
					56 55 47 48 
					57 58 50 49 
					59 57 49 51 
					58 60 52 50 
					61 59 51 53 
					60 62 54 52 
					63 61 53 55 
					62 64 56 54 
					64 63 55 56 
					65 66 58 57 
					67 65 57 59 
					66 68 60 58 
					69 67 59 61 
					68 70 62 60 
					71 69 61 63 
					70 72 64 62 
					72 71 63 64 
					73 74 66 65 
					75 73 65 67 
					74 76 68 66 
					77 75 67 69 
					76 78 70 68 
					79 77 69 71 
					78 80 72 70 
					80 79 71 72 
					81 82 74 73 
					83 81 73 75 
					82 84 76 74 
					85 83 75 77 
					84 86 78 76 
					87 85 77 79 
					86 88 80 78 
					88 87 79 80 
					89 90 82 81 
					91 89 81 83 
					90 92 84 82 
					93 91 83 85 
					92 94 86 84 
					95 93 85 87 
					94 96 88 86 
					96 95 87 88 
					97 98 90 89 
					99 97 89 91 
					98 100 92 90 
					101 99 91 93 
					100 102 94 92 
					103 101 93 95 
					102 104 96 94 
					104 103 95 96 
					105 98 97 
					105 97 99 
					105 100 98 
					105 99 101 
					105 102 100 
					105 101 103 
					105 104 102 
					105 103 104 
				</DataArray>
				<DataArray type="Int32" Name="offsets" format="ascii">
					4 8 12 16 20 24 27 30 33 37 41 45 49 53 56 60 64 68 71 75 78 81 84 88 92 96 100 104 107 111 114 118 122 126 130 134 138 142 146 150 154 158 162 166 170 174 178 182 186 190 194 198 202 206 210 214 218 222 226 230 234 238 242 246 250 254 258 262 266 270 274 278 282 286 290 294 298 302 306 310 314 318 322 326 330 334 338 342 346 350 354 358 362 366 370 374 378 382 386 390 394 398 402 406 410 413 416 419 422 425 428 431 434 
				</DataArray>
			</Polys>
		</Piece>
	</PolyData>
</VTKFile>
