<?xml version="1.0"?>
<VTKFile type="PolyData" version="0.1" byte_order="LittleEndian" compressor="vtkZLibDataCompressor">
	<PolyData>
		<Piece NumberOfPoints="66" NumberOfVerts="0" NumberOfLines="0" NumberOfStrips="0" NumberOfPolys="72">
		<PointData Normals="Normals">
		<DataArray type="Float32" Name="Normals" NumberOfComponents="3" format="ascii">
			 0.993533 -0.110128 -0.027658
			 0.539745 -0.519522 -0.662399
			 0.404003  0.240923 -0.882461
			 0.428821  0.794162 -0.430604
			 0.998216 -0.024165 -0.054606
			 0.523108 -0.429209 -0.736300
			 0.519171  0.322204  0.791609
			 0.113700  0.949887  0.291182
			 0.600135  0.222275  0.768396
			 0.314102 -0.577854 -0.753276
			 0.336958  0.374131 -0.863994
			 0.097369 -0.663402 -0.741901
			-0.177187  0.905026 -0.386695
			 0.989551  0.141369 -0.028337
			 0.578294 -0.285294 -0.764319
			 0.596231  0.347272  0.723817
			 0.032377 -0.518686 -0.854351
			-0.222661  0.325083  0.919099
			-0.239042  0.910176  0.338288
			-0.275007  0.249905  0.928396
			-0.323869  0.275600  0.905071
			 0.103969 -0.562013 -0.820568
			-0.112462  0.426769 -0.897341
			 0.113576 -0.677516 -0.726685
			 0.005633 -0.576244 -0.817258
			-0.655055  0.755563 -0.005217
			-0.659008  0.488117 -0.572233
			 0.980619  0.180771 -0.075554
			 0.522661 -0.275918 -0.806657
			 0.476333  0.442994  0.759515
			 0.176293 -0.316853 -0.931947
			-0.291563  0.238633  0.926307
			-0.001118 -0.304449 -0.952528
			-0.836823  0.034479  0.546387
			-0.794885 -0.083371  0.601005
			-0.805618 -0.034056  0.591456
			-0.805307 -0.039185  0.591562
			-0.735640 -0.491327 -0.466296
			-0.618229 -0.721775 -0.311179
			-0.742986 -0.607476 -0.280972
			-0.834438 -0.351074 -0.424807
			 0.948915  0.253143 -0.188357
			 0.469011 -0.168309 -0.867007
			 0.344750  0.492161  0.799328
			 0.392753 -0.033618 -0.919029
			-0.239553  0.283995  0.928419
			 0.162013  0.087736 -0.982880
			-0.816681 -0.013773  0.576925
			-0.786756 -0.064098 -0.613928
			 0.971636  0.228893 -0.059423
			 0.484034 -0.319976 -0.814449
			 0.143295  0.294866  0.944733
			 0.588887 -0.213339 -0.779550
			-0.184653 -0.050747  0.981493
			 0.472896 -0.173320 -0.863904
			-0.806600 -0.140864  0.574068
			-0.693638 -0.272067 -0.666968
			 0.451588 -0.712787 -0.536659
			 0.438286 -0.672499 -0.596364
			 0.208434 -0.862289  0.461533
			 0.613023 -0.637218 -0.467071
			-0.071550 -0.910891  0.406396
			 0.580024 -0.714349 -0.391508
			-0.458881 -0.778994  0.427313
			-0.093417 -0.995374  0.022453
			 0.311078 -0.915289 -0.255885
		</DataArray>
	</PointData>
	<Points>
		<DataArray type="Float32" NumberOfComponents="3" format="ascii">
			 0.011347 -0.040541  0.043304
			 0.007508 -0.043854  0.041462
			 0.007210 -0.040907  0.037384
			 0.009431 -0.035880  0.042121
			 0.010163 -0.045536  0.046154
			 0.007894 -0.048333  0.044200
			 0.007094 -0.040783  0.050398
			 0.006573 -0.035718  0.048104
			 0.007481 -0.046241  0.051743
			 0.004910 -0.044491  0.040393
			 0.004137 -0.040425  0.037316
			 0.005527 -0.048312  0.043816
			 0.003106 -0.038538  0.041865
			 0.009900 -0.050624  0.048871
			 0.009055 -0.052735  0.046621
			 0.008491 -0.051433  0.053725
			 0.006322 -0.052539  0.046701
			 0.002789 -0.041078  0.050717
			 0.001966 -0.036349  0.047896
			 0.003454 -0.046477  0.052305
			 0.004433 -0.051751  0.054184
			 0.000780 -0.045937  0.038786
			-0.001062 -0.041590  0.036111
			 0.002006 -0.048973  0.043288
			 0.003179 -0.053173  0.046803
			-0.004124 -0.038332  0.046011
			-0.005609 -0.041763  0.039717
			 0.010759 -0.055614  0.051204
			 0.010276 -0.057124  0.048995
			 0.009706 -0.056522  0.055870
			 0.007164 -0.057106  0.049050
			 0.005830 -0.056854  0.056139
			 0.004488 -0.058164  0.049194
			-0.003861 -0.043085  0.048058
			-0.001411 -0.047770  0.049210
			 0.000650 -0.052412  0.050976
			 0.002269 -0.057033  0.053110
			-0.003451 -0.046633  0.040861
			-0.001814 -0.050588  0.044225
			-0.000058 -0.054779  0.048051
			 0.001752 -0.059396  0.050904
			 0.013132 -0.060273  0.052861
			 0.010780 -0.061650  0.051530
			 0.010740 -0.061677  0.057649
			 0.007831 -0.061994  0.050726
			 0.007954 -0.061759  0.057694
			 0.006125 -0.063299  0.050295
			 0.003583 -0.061646  0.055244
			 0.003105 -0.064197  0.050981
			 0.015381 -0.064838  0.054560
			 0.011786 -0.066423  0.052519
			 0.011628 -0.066939  0.060218
			 0.009515 -0.066760  0.051418
			 0.009651 -0.066712  0.060035
			 0.007406 -0.068914  0.049562
			 0.004687 -0.066277  0.057556
			 0.004947 -0.069392  0.049443
			 0.014987 -0.069819  0.057487
			 0.012341 -0.069740  0.056016
			 0.013073 -0.071144  0.057954
			 0.009422 -0.070768  0.054471
			 0.010587 -0.071459  0.057964
			 0.007776 -0.071957  0.053341
			 0.004991 -0.070453  0.056652
			 0.004773 -0.073085  0.052457
			 0.010033 -0.070907  0.055818
		</DataArray>
	</Points>
			<Polys>
				<DataArray type="Int32" Name="connectivity" format="ascii">
					0 1 2 3 
					4 5 1 0 
					6 0 3 7 
					8 4 0 6 
					1 9 10 2 
					5 11 9 1 
					2 10 12 
					3 2 12 
					7 3 12 
					13 14 5 4 
					15 13 4 8 
					14 16 11 5 
					17 6 7 18 
					19 8 6 17 
					18 7 12 
					20 15 8 19 
					9 21 22 10 
					11 23 21 9 
					10 22 12 
					16 24 23 11 
					25 18 12 
					26 25 12 
					22 26 12 
					27 28 14 13 
					29 27 13 15 
					28 30 16 14 
					31 29 15 20 
					30 32 24 16 
					33 17 18 25 
					34 19 17 33 
					35 20 19 34 
					36 31 20 35 
					21 37 26 22 
					23 38 37 21 
					24 39 38 23 
					32 40 39 24 
					37 33 25 26 
					41 42 28 27 
					43 41 27 29 
					42 44 30 28 
					45 43 29 31 
					44 46 32 30 
					47 45 31 36 
					46 48 40 32 
					38 34 33 37 
					39 35 34 38 
					40 36 35 39 
					48 47 36 40 
					49 50 42 41 
					51 49 41 43 
					50 52 44 42 
					53 51 43 45 
					52 54 46 44 
					55 53 45 47 
					54 56 48 46 
					56 55 47 48 
					57 58 50 49 
					59 57 49 51 
					58 60 52 50 
					61 59 51 53 
					60 62 54 52 
					63 61 53 55 
					62 64 56 54 
					64 63 55 56 
					57 59 65 
					58 57 65 
					60 58 65 
					59 61 65 
					62 60 65 
					61 63 65 
					64 62 65 
					63 64 65 
				</DataArray>
				<DataArray type="Int32" Name="offsets" format="ascii">
					4 8 12 16 20 24 27 30 33 37 41 45 49 53 56 60 64 68 71 75 78 81 84 88 92 96 100 104 108 112 116 120 124 128 132 136 140 144 148 152 156 160 164 168 172 176 180 184 188 192 196 200 204 208 212 216 220 224 228 232 236 240 244 248 251 254 257 260 263 266 269 272 
				</DataArray>
			</Polys>
		</Piece>
	</PolyData>
</VTKFile>
