<?xml version="1.0"?>
<VTKFile type="PolyData" version="0.1" byte_order="LittleEndian" compressor="vtkZLibDataCompressor">
	<PolyData>
		<Piece NumberOfPoints="78" NumberOfVerts="0" NumberOfLines="0" NumberOfStrips="0" NumberOfPolys="84">
		<PointData Normals="Normals">
		<DataArray type="Float32" Name="Normals" NumberOfComponents="3" format="ascii">
			 0.858626  0.311223 -0.407310
			 0.946973  0.228331  0.226066
			 0.876615 -0.099676  0.470755
			 0.759935 -0.306268 -0.573323
			 0.937111  0.218275 -0.272360
			 0.990756  0.131298  0.034098
			 0.097071  0.071139 -0.992732
			-0.067434 -0.069091 -0.995329
			 0.426334  0.123527 -0.896092
			 0.770339  0.255934  0.584017
			 0.905997 -0.037070  0.421658
			 0.899761  0.080214  0.428947
			 0.602026 -0.795323  0.070896
			 0.010551 -0.614161 -0.789110
			 0.903714  0.042115 -0.426060
			 0.994496  0.073541  0.074632
			 0.292127 -0.031230 -0.955870
			 0.965794  0.013486  0.258960
			-0.663321 -0.174058 -0.727811
			-0.533483 -0.212722 -0.818624
			-0.632603 -0.113206 -0.766158
			-0.571935 -0.064007 -0.817798
			 0.378848  0.205646  0.902321
			 0.604909 -0.356842  0.711863
			 0.449708  0.026287  0.892789
			 0.548704 -0.833395 -0.066146
			 0.539395 -0.068973  0.839223
			-0.437642 -0.858158 -0.268392
			-0.090204 -0.717366  0.690832
			-0.717894 -0.623381  0.309876
			-0.910646 -0.293051 -0.291281
			 0.899599 -0.084023 -0.428558
			 0.987554 -0.066656  0.142458
			 0.239742 -0.083878 -0.967206
			 0.951117 -0.039263  0.306325
			-0.544946 -0.055475 -0.836634
			 0.614478 -0.100428  0.782516
			-0.947774 -0.211443 -0.238783
			-0.952070 -0.192569 -0.237655
			-0.962720 -0.112119 -0.246169
			-0.963183 -0.065918 -0.260638
			-0.419953 -0.150019  0.895061
			-0.483883 -0.108753  0.868349
			-0.365505 -0.122142  0.922761
			-0.392084 -0.087465  0.915762
			-0.298155 -0.120015  0.946943
			-0.898259 -0.197268  0.392705
			-0.870062 -0.236348  0.432587
			 0.845981 -0.233163 -0.479532
			 0.943020 -0.332716  0.003639
			 0.286248 -0.120186 -0.950588
			 0.910168 -0.328515  0.252334
			-0.522070 -0.115953 -0.844984
			 0.609636 -0.301527  0.733093
			-0.960834 -0.108260 -0.255104
			-0.249836 -0.192368  0.948987
			-0.843402 -0.212768  0.493359
			-0.872652 -0.117518  0.473991
			-0.882214 -0.085828  0.462959
			-0.899090 -0.092209  0.427943
			 0.786764 -0.166451 -0.594387
			 0.946927 -0.275467 -0.165671
			 0.359665  0.016658 -0.932933
			 0.931840 -0.296074  0.209796
			-0.499797  0.064081 -0.863769
			 0.592718 -0.265214  0.760491
			-0.973386  0.008682 -0.229005
			-0.307552 -0.128375  0.942832
			-0.913637 -0.027902  0.405572
			 0.451473  0.705852 -0.545843
			 0.607209  0.794487  0.009302
			 0.621374  0.743341  0.247667
			-0.227366  0.911203 -0.343532
			 0.358529  0.765104  0.534858
			-0.552405  0.831794  0.054482
			-0.241406  0.723685  0.646532
			-0.549520  0.720933  0.422236
			-0.029634  0.986591  0.160501
		</DataArray>
	</PointData>
	<Points>
		<DataArray type="Float32" NumberOfComponents="3" format="ascii">
			 0.004637 -0.101048 -0.039110
			 0.004947 -0.100645 -0.036284
			 0.006826 -0.106121 -0.037701
			 0.007419 -0.106004 -0.038901
			 0.002278 -0.096167 -0.038763
			 0.003845 -0.095148 -0.035887
			 0.002078 -0.098601 -0.039433
			 0.003362 -0.103717 -0.038976
			 0.001367 -0.093387 -0.039680
			 0.003038 -0.100061 -0.035003
			 0.005087 -0.105016 -0.035254
			 0.002654 -0.094508 -0.034423
			 0.003214 -0.109758 -0.035630
			 0.003498 -0.109306 -0.038544
			 0.002126 -0.090157 -0.038738
			 0.002658 -0.089486 -0.036159
			 0.001331 -0.088072 -0.039799
			 0.002012 -0.089052 -0.033865
			-0.000185 -0.098721 -0.038488
			 0.001300 -0.103893 -0.038862
			-0.001271 -0.093453 -0.038415
			-0.001756 -0.088110 -0.038998
			 0.002870 -0.102059 -0.030681
			 0.005732 -0.106856 -0.030815
			 0.000862 -0.096675 -0.030846
			 0.002802 -0.109949 -0.033543
			 0.001145 -0.090805 -0.030259
			 0.001866 -0.109686 -0.037643
			 0.002107 -0.110118 -0.032224
			-0.001105 -0.108865 -0.033561
			-0.000259 -0.104885 -0.036785
			 0.002618 -0.083992 -0.038875
			 0.002580 -0.083717 -0.035869
			 0.001272 -0.082756 -0.040015
			 0.001867 -0.083572 -0.033324
			-0.001657 -0.082715 -0.039521
			 0.000836 -0.085006 -0.029963
			-0.001190 -0.099493 -0.036179
			-0.002618 -0.094254 -0.035861
			-0.003544 -0.088904 -0.035829
			-0.004016 -0.083449 -0.035836
			 0.000708 -0.099751 -0.031093
			 0.001485 -0.104960 -0.031361
			 0.000001 -0.094546 -0.030830
			-0.000842 -0.089309 -0.030560
			-0.001448 -0.084069 -0.030180
			-0.000627 -0.103804 -0.033530
			-0.001375 -0.098879 -0.032831
			 0.003431 -0.078200 -0.038968
			 0.003441 -0.077960 -0.036192
			 0.001565 -0.077499 -0.040594
			 0.002495 -0.078025 -0.032917
			-0.001527 -0.077332 -0.039971
			 0.001183 -0.079096 -0.029834
			-0.004537 -0.078016 -0.035806
			-0.000682 -0.078970 -0.029219
			-0.002509 -0.093959 -0.032248
			-0.003339 -0.088962 -0.032156
			-0.003722 -0.083913 -0.032058
			-0.004131 -0.078856 -0.031925
			 0.005346 -0.072738 -0.038646
			 0.006017 -0.072870 -0.036114
			 0.002685 -0.072372 -0.040954
			 0.005516 -0.073706 -0.032040
			-0.002361 -0.072084 -0.040932
			 0.003697 -0.074143 -0.028428
			-0.004890 -0.072575 -0.036095
			-0.000679 -0.073943 -0.027716
			-0.004786 -0.073834 -0.031802
			 0.004468 -0.067001 -0.039248
			 0.006090 -0.067354 -0.036504
			 0.005345 -0.068214 -0.031872
			-0.001770 -0.066953 -0.039598
			 0.004105 -0.068426 -0.028162
			-0.004296 -0.067267 -0.035010
			-0.000393 -0.068766 -0.027561
			-0.004256 -0.068848 -0.031110
			 0.001517 -0.068678 -0.034445
		</DataArray>
	</Points>
			<Polys>
				<DataArray type="Int32" Name="connectivity" format="ascii">
					0 1 2 3 
					4 5 1 0 
					6 0 3 7 
					8 4 0 6 
					1 9 10 2 
					5 11 9 1 
					2 10 12 
					3 2 12 
					12 13 3 
					13 7 3 
					14 15 5 4 
					16 14 4 8 
					15 17 11 5 
					18 6 7 19 
					20 8 6 18 
					7 13 19 
					21 16 8 20 
					9 22 23 10 
					11 24 22 9 
					10 23 25 12 
					17 26 24 11 
					27 12 25 28 29 
					12 27 13 
					30 19 13 27 
					31 32 15 14 
					33 31 14 16 
					32 34 17 15 
					35 33 16 21 
					34 36 26 17 
					37 18 19 30 
					38 20 18 37 
					39 21 20 38 
					40 35 21 39 
					22 41 42 23 
					24 43 41 22 
					23 28 25 
					23 42 28 
					26 44 43 24 
					36 45 44 26 
					46 30 27 29 
					42 46 29 28 
					47 37 30 46 
					48 49 32 31 
					50 48 31 33 
					49 51 34 32 
					52 50 33 35 
					51 53 36 34 
					54 52 35 40 
					53 55 45 36 
					56 38 37 47 
					57 39 38 56 
					58 40 39 57 
					59 54 40 58 
					41 47 46 42 
					43 56 47 41 
					44 57 56 43 
					45 58 57 44 
					55 59 58 45 
					60 61 49 48 
					62 60 48 50 
					61 63 51 49 
					64 62 50 52 
					63 65 53 51 
					66 64 52 54 
					65 67 55 53 
					68 66 54 59 
					67 68 59 55 
					69 70 61 60 
					69 60 62 
					70 71 63 61 
					72 69 62 64 
					71 73 65 63 
					74 72 64 66 
					73 75 67 65 
					76 74 66 68 
					75 76 68 67 
					69 72 77 
					70 69 77 
					71 70 77 
					73 71 77 
					72 74 77 
					75 73 77 
					74 76 77 
					76 75 77 
				</DataArray>
				<DataArray type="Int32" Name="offsets" format="ascii">
					4 8 12 16 20 24 27 30 33 36 40 44 48 52 56 59 63 67 71 75 79 84 87 91 95 99 103 107 111 115 119 123 127 131 135 138 141 145 149 153 157 161 165 169 173 177 181 185 189 193 197 201 205 209 213 217 221 225 229 233 237 241 245 249 253 257 261 265 268 272 276 280 284 288 292 296 299 302 305 308 311 314 317 320 
				</DataArray>
			</Polys>
		</Piece>
	</PolyData>
</VTKFile>
