<?xml version="1.0"?>
<VTKFile type="PolyData" version="0.1" byte_order="LittleEndian" compressor="vtkZLibDataCompressor">
	<PolyData>
		<Piece NumberOfPoints="42" NumberOfVerts="0" NumberOfLines="0" NumberOfStrips="0" NumberOfPolys="39">
		<PointData Normals="Normals">
		<DataArray type="Float32" Name="Normals" NumberOfComponents="3" format="ascii">
			 0.837253  0.271762  0.474503
			 0.867542  0.155986 -0.472270
			-0.059529  0.332377 -0.941266
			-0.878369  0.362893 -0.311089
			-0.782946  0.392673  0.482497
			 0.054749 -0.657993 -0.751031
			 0.852660 -0.241437  0.463335
			 0.878951 -0.319389 -0.354170
			-0.029269 -0.165881  0.985711
			-0.021285 -0.099474  0.994812
			 0.026953 -0.362464 -0.931608
			-0.922138 -0.164412 -0.350187
			-0.856277 -0.081656  0.510021
			 0.350231 -0.935299 -0.050545
			-0.481174 -0.691725  0.538506
			-0.710704 -0.698095  0.086967
			-0.940615 -0.198607 -0.275314
			 0.246772 -0.150964 -0.957243
			 0.887861 -0.144046 -0.436982
			 0.887241 -0.095400  0.451335
			 0.949684 -0.148568 -0.275733
			 0.014778 -0.010977  0.999831
			 0.179997 -0.270142 -0.945846
			-0.841698  0.001813  0.539946
			-0.916721 -0.119237 -0.381321
			 0.733258 -0.072427  0.676082
			 0.257400 -0.876426  0.406967
			-0.268087 -0.472679  0.839467
			-0.245952 -0.057518  0.967574
			-0.749540 -0.189974  0.634113
			-0.770110 -0.062926  0.634800
			-0.927773 -0.046219 -0.370272
			 0.239629  0.023359 -0.970584
			 0.911090  0.233919 -0.339407
			 0.745418  0.304525  0.592973
			 0.862614  0.079980  0.499500
			 0.952732  0.048907 -0.299850
			-0.017110  0.015898  0.999727
			 0.221107 -0.144042 -0.964554
			-0.793028  0.007100  0.609144
			-0.927629 -0.100405 -0.359754
			-0.130806 -0.004459  0.991398
		</DataArray>
	</PointData>
	<Points>
		<DataArray type="Float32" NumberOfComponents="3" format="ascii">
			 0.007591 -0.110324 -0.031279
			 0.006897 -0.110268 -0.036451
			 0.002597 -0.110281 -0.040227
			-0.001311 -0.110219 -0.036269
			-0.001001 -0.110316 -0.032072
			 0.002259 -0.136479 -0.034388
			 0.005600 -0.114707 -0.031297
			 0.005619 -0.114541 -0.035670
			 0.003714 -0.110082 -0.029213
			 0.003398 -0.114122 -0.029753
			 0.003125 -0.114827 -0.039492
			-0.000840 -0.114614 -0.036026
			-0.000543 -0.114529 -0.032480
			 0.004979 -0.135918 -0.031881
			 0.003060 -0.135263 -0.031135
			 0.001952 -0.136183 -0.034264
			 0.000181 -0.132297 -0.034238
			 0.003869 -0.133696 -0.037106
			 0.005926 -0.132217 -0.033225
			 0.004894 -0.119343 -0.031259
			 0.004441 -0.118838 -0.034733
			 0.003201 -0.118366 -0.030176
			 0.002784 -0.119429 -0.038024
			 0.000214 -0.118647 -0.031641
			-0.000325 -0.119000 -0.035886
			 0.008196 -0.132704 -0.030010
			 0.004935 -0.135246 -0.029240
			 0.003700 -0.135211 -0.029506
			 0.003670 -0.130970 -0.029603
			 0.001461 -0.131405 -0.031646
			 0.000836 -0.127200 -0.031308
			-0.000210 -0.127838 -0.034677
			 0.003243 -0.128992 -0.036184
			 0.004906 -0.127756 -0.033757
			 0.005974 -0.128877 -0.030038
			 0.004917 -0.124407 -0.030546
			 0.004244 -0.123343 -0.034289
			 0.002820 -0.122559 -0.030216
			 0.002638 -0.124260 -0.037255
			 0.000633 -0.122878 -0.031128
			-0.000207 -0.123407 -0.035163
			 0.003289 -0.126755 -0.029879
		</DataArray>
	</Points>
			<Polys>
				<DataArray type="Int32" Name="connectivity" format="ascii">
					0 1 2 3 4 5 
					1 0 6 7 
					0 8 9 6 
					2 1 7 10 
					3 2 10 11 
					4 3 11 12 
					8 4 12 9 
					5 13 14 15 
					16 17 5 15 
					17 18 13 5 
					7 6 19 20 
					6 9 21 19 
					10 7 20 22 
					9 12 23 21 
					11 10 22 24 
					12 11 24 23 
					18 25 26 13 
					13 26 27 14 
					28 29 14 27 
					29 16 15 14 
					30 31 16 29 
					31 32 17 16 
					32 33 18 17 
					33 34 25 18 
					20 19 35 36 
					19 21 37 35 
					22 20 36 38 
					21 23 39 37 
					24 22 38 40 
					23 24 40 39 
					25 28 27 26 
					34 41 28 25 
					41 30 29 28 
					37 39 30 41 
					39 40 31 30 
					40 38 32 31 
					38 36 33 32 
					36 35 34 33 
					35 37 41 34 
				</DataArray>
				<DataArray type="Int32" Name="offsets" format="ascii">
					6 10 14 18 22 26 30 34 38 42 46 50 54 58 62 66 70 74 78 82 86 90 94 98 102 106 110 114 118 122 126 130 134 138 142 146 150 154 158 
				</DataArray>
			</Polys>
		</Piece>
	</PolyData>
</VTKFile>
