<?xml version="1.0"?>
<VTKFile type="PolyData" version="0.1" byte_order="LittleEndian" compressor="vtkZLibDataCompressor">
	<PolyData>
		<Piece NumberOfPoints="78" NumberOfVerts="0" NumberOfLines="0" NumberOfStrips="0" NumberOfPolys="84">
		<PointData Normals="Normals">
		<DataArray type="Float32" Name="Normals" NumberOfComponents="3" format="ascii">
			 0.858584  0.287645 -0.424374
			 0.947014  0.240937  0.212399
			 0.876667 -0.072494  0.475605
			 0.760215 -0.338085 -0.554771
			 0.937087  0.202499 -0.284362
			 0.990749  0.133146  0.026242
			 0.097356  0.014595 -0.995143
			-0.067280 -0.125632 -0.989793
			 0.426427  0.072374 -0.901622
			 0.770370  0.288903  0.568388
			 0.906057 -0.012940  0.422957
			 0.899834  0.104622  0.423502
			 0.602040 -0.789960  0.116236
			 0.010552 -0.658165 -0.752800
			 0.903785  0.017866 -0.427614
			 0.994503  0.077806  0.070070
			 0.292184 -0.085659 -0.952518
			 0.965861  0.028316  0.257510
			-0.663353 -0.215358 -0.716648
			-0.533498 -0.259162 -0.805118
			-0.632553 -0.156671 -0.758506
			-0.571942 -0.110564 -0.812809
			 0.378875  0.256744  0.889121
			 0.604870 -0.315697  0.731073
			 0.449759  0.077186  0.889809
			 0.548603 -0.835880 -0.018433
			 0.539386 -0.020949  0.841798
			-0.437724 -0.872049 -0.218926
			-0.090291 -0.676747  0.730658
			-0.717882 -0.604656  0.345016
			-0.910615 -0.309296 -0.274072
			 0.899661 -0.108296 -0.422944
			 0.987567 -0.058293  0.145992
			 0.239732 -0.138930 -0.960847
			 0.951151 -0.021539  0.307975
			-0.544987 -0.103172 -0.832072
			 0.614492 -0.055518  0.786967
			-0.947770 -0.224778 -0.226291
			-0.952049 -0.205855 -0.226331
			-0.962678 -0.126033 -0.239514
			-0.963146 -0.080787 -0.256559
			-0.419899 -0.098801  0.902177
			-0.483858 -0.059126  0.873147
			-0.365383 -0.069334  0.928271
			-0.392024 -0.035108  0.919285
			-0.298093 -0.065837  0.952264
			-0.898215 -0.174644  0.403373
			-0.870055 -0.211350  0.445348
			 0.846015 -0.260114 -0.465403
			 0.943049 -0.331882  0.022639
			 0.286218 -0.174206 -0.942195
			 0.910205 -0.313454  0.270691
			-0.522089 -0.164009 -0.836973
			 0.609684 -0.259145  0.749086
			-0.960819 -0.122754 -0.248514
			-0.249789 -0.137945  0.958424
			-0.843371 -0.184353  0.504717
			-0.872627 -0.090382  0.479951
			-0.882217 -0.059374  0.467085
			-0.899080 -0.067709  0.432517
			 0.786787 -0.199971 -0.583933
			 0.946941 -0.284401 -0.149728
			 0.359658 -0.036478 -0.932371
			 0.931855 -0.283590  0.226325
			-0.499825  0.014718 -0.866002
			 0.592738 -0.221386  0.774371
			-0.973400 -0.004426 -0.229068
			-0.307562 -0.074394  0.948615
			-0.913621 -0.004736  0.406539
			 0.451412  0.673661 -0.585156
			 0.607168  0.793757 -0.036009
			 0.621390  0.756238  0.204888
			-0.227329  0.890149 -0.394913
			 0.358518  0.794366  0.490355
			-0.552392  0.833555  0.007027
			-0.241461  0.759337  0.604238
			-0.549537  0.743771  0.380545
			-0.029645  0.994132  0.104037
		</DataArray>
	</PointData>
	<Points>
		<DataArray type="Float32" NumberOfComponents="3" format="ascii">
			 0.001029 -0.123118 -0.011369
			 0.001408 -0.122430 -0.007955
			 0.003701 -0.129201 -0.009301
			 0.004425 -0.129142 -0.010770
			-0.001850 -0.117147 -0.011286
			 0.000062 -0.115705 -0.007854
			-0.002095 -0.120159 -0.011934
			-0.000527 -0.126361 -0.011020
			-0.002962 -0.113823 -0.012598
			-0.000922 -0.121629 -0.006434
			 0.001579 -0.127684 -0.006395
			-0.001391 -0.114823 -0.006114
			-0.000707 -0.133489 -0.006523
			-0.000360 -0.133141 -0.010105
			-0.002037 -0.109822 -0.011674
			-0.001388 -0.108824 -0.008580
			-0.003007 -0.107356 -0.013112
			-0.002175 -0.108137 -0.005814
			-0.004857 -0.120240 -0.010773
			-0.003044 -0.126568 -0.010869
			-0.006182 -0.113816 -0.011052
			-0.006774 -0.107346 -0.012133
			-0.001127 -0.123763 -0.001029
			 0.002366 -0.129617 -0.000859
			-0.003579 -0.117215 -0.001605
			-0.001210 -0.133576 -0.003967
			-0.003233 -0.110021 -0.001298
			-0.002352 -0.133541 -0.008981
			-0.002058 -0.133690 -0.002349
			-0.005978 -0.132257 -0.004064
			-0.004946 -0.127632 -0.008270
			-0.001437 -0.102320 -0.012270
			-0.001484 -0.101776 -0.008628
			-0.003080 -0.100893 -0.013746
			-0.002353 -0.101422 -0.005536
			-0.006654 -0.100809 -0.013146
			-0.003611 -0.102936 -0.001341
			-0.006083 -0.121020 -0.007907
			-0.007826 -0.114614 -0.007884
			-0.008957 -0.108094 -0.008218
			-0.009533 -0.101446 -0.008605
			-0.003767 -0.120980 -0.001692
			-0.002817 -0.127346 -0.001656
			-0.004630 -0.114619 -0.001733
			-0.005658 -0.108219 -0.001769
			-0.006399 -0.101809 -0.001671
			-0.005395 -0.126088 -0.004379
			-0.006309 -0.120038 -0.003870
			-0.000445 -0.095269 -0.012787
			-0.000433 -0.094783 -0.009422
			-0.002722 -0.094528 -0.014817
			-0.001588 -0.094635 -0.005427
			-0.006496 -0.094282 -0.014069
			-0.003189 -0.095726 -0.001596
			-0.010170 -0.094826 -0.008947
			-0.005465 -0.095529 -0.000855
			-0.007692 -0.114004 -0.003502
			-0.008707 -0.107908 -0.003738
			-0.009175 -0.101750 -0.003970
			-0.009675 -0.095579 -0.004160
			 0.001892 -0.088590 -0.012775
			 0.002710 -0.088576 -0.009681
			-0.001356 -0.088306 -0.015613
			 0.002099 -0.089311 -0.004658
			-0.007515 -0.087955 -0.015605
			-0.000121 -0.089592 -0.000227
			-0.010601 -0.088216 -0.009678
			-0.005462 -0.089299  0.000627
			-0.010473 -0.089452 -0.004359
			 0.000819 -0.081643 -0.013907
			 0.002799 -0.081882 -0.010539
			 0.001890 -0.082608 -0.004836
			-0.006793 -0.081609 -0.014337
			 0.000377 -0.082608 -0.000301
			-0.009876 -0.081672 -0.008725
			-0.005113 -0.082981  0.000455
			-0.009827 -0.083328 -0.003863
			-0.002782 -0.083352 -0.007939
		</DataArray>
	</Points>
			<Polys>
				<DataArray type="Int32" Name="connectivity" format="ascii">
					0 1 2 3 
					4 5 1 0 
					6 0 3 7 
					8 4 0 6 
					1 9 10 2 
					5 11 9 1 
					2 10 12 
					3 2 12 
					12 13 3 
					13 7 3 
					14 15 5 4 
					16 14 4 8 
					15 17 11 5 
					18 6 7 19 
					20 8 6 18 
					7 13 19 
					21 16 8 20 
					9 22 23 10 
					11 24 22 9 
					10 23 25 12 
					17 26 24 11 
					27 12 25 28 29 
					12 27 13 
					30 19 13 27 
					31 32 15 14 
					33 31 14 16 
					32 34 17 15 
					35 33 16 21 
					34 36 26 17 
					37 18 19 30 
					38 20 18 37 
					39 21 20 38 
					40 35 21 39 
					22 41 42 23 
					24 43 41 22 
					23 28 25 
					23 42 28 
					26 44 43 24 
					36 45 44 26 
					46 30 27 29 
					42 46 29 28 
					47 37 30 46 
					48 49 32 31 
					50 48 31 33 
					49 51 34 32 
					52 50 33 35 
					51 53 36 34 
					54 52 35 40 
					53 55 45 36 
					56 38 37 47 
					57 39 38 56 
					58 40 39 57 
					59 54 40 58 
					41 47 46 42 
					43 56 47 41 
					44 57 56 43 
					45 58 57 44 
					55 59 58 45 
					60 61 49 48 
					62 60 48 50 
					61 63 51 49 
					64 62 50 52 
					63 65 53 51 
					66 64 52 54 
					65 67 55 53 
					68 66 54 59 
					67 68 59 55 
					69 70 61 60 
					69 60 62 
					70 71 63 61 
					72 69 62 64 
					71 73 65 63 
					74 72 64 66 
					73 75 67 65 
					76 74 66 68 
					75 76 68 67 
					69 72 77 
					70 69 77 
					71 70 77 
					73 71 77 
					72 74 77 
					75 73 77 
					74 76 77 
					76 75 77 
				</DataArray>
				<DataArray type="Int32" Name="offsets" format="ascii">
					4 8 12 16 20 24 27 30 33 36 40 44 48 52 56 59 63 67 71 75 79 84 87 91 95 99 103 107 111 115 119 123 127 131 135 138 141 145 149 153 157 161 165 169 173 177 181 185 189 193 197 201 205 209 213 217 221 225 229 233 237 241 245 249 253 257 261 265 268 272 276 280 284 288 292 296 299 302 305 308 311 314 317 320 
				</DataArray>
			</Polys>
		</Piece>
	</PolyData>
</VTKFile>
