<?xml version="1.0"?>
<VTKFile type="PolyData" version="0.1" byte_order="LittleEndian" compressor="vtkZLibDataCompressor">
	<PolyData>
		<Piece NumberOfPoints="27" NumberOfVerts="0" NumberOfLines="0" NumberOfStrips="0" NumberOfPolys="26">
		<PointData Normals="Normals">
		<DataArray type="Float32" Name="Normals" NumberOfComponents="3" format="ascii">
			-0.285908  0.430586  0.856068
			 0.861488  0.496886  0.104611
			-0.188347  0.653324 -0.733275
			-0.949688  0.313190 -0.002314
			 0.063740 -0.295154  0.953321
			 0.987956 -0.150102  0.037576
			-0.969025 -0.221883 -0.108439
			 0.206924 -0.247199 -0.946613
			 0.007801 -0.190939  0.981571
			 0.985732 -0.167031  0.020798
			-0.969858 -0.194573 -0.146683
			 0.170675 -0.300369 -0.938429
			-0.088866  0.176158  0.980342
			 0.997578  0.062533 -0.030463
			-0.984287 -0.111235 -0.137132
			 0.095626 -0.195735 -0.975983
			 0.013277  0.319002  0.947661
			 0.960626  0.261793 -0.093075
			-0.971737 -0.233611 -0.033964
			 0.102129 -0.210970 -0.972143
			 0.199910  0.233741  0.951526
			 0.986234  0.148636 -0.072461
			-0.855333 -0.471077  0.215621
			 0.250967 -0.620874 -0.742651
			 0.657912 -0.164864  0.734828
			 0.850117 -0.526117  0.022413
			-0.222700 -0.850690  0.476163
		</DataArray>
	</PointData>
	<Points>
		<DataArray type="Float32" NumberOfComponents="3" format="ascii">
			 0.001718 -0.166486  0.004528
			 0.004710 -0.163984 -0.001020
			 0.002556 -0.164303 -0.005957
			-0.002421 -0.164976 -0.000998
			 0.001700 -0.169455  0.003580
			 0.004770 -0.167761 -0.001287
			-0.002073 -0.168944 -0.001686
			 0.002647 -0.168553 -0.005715
			 0.001370 -0.172573  0.003173
			 0.003854 -0.171355 -0.000673
			-0.000924 -0.172653 -0.001134
			 0.001772 -0.172186 -0.003622
			 0.001470 -0.175413  0.002554
			 0.003837 -0.175145 -0.000353
			-0.000613 -0.176584 -0.000485
			 0.001683 -0.176303 -0.002686
			 0.002822 -0.178224  0.003285
			 0.003965 -0.178761  0.000606
			-0.000159 -0.180527  0.000109
			 0.002454 -0.180884 -0.002212
			 0.003862 -0.181079  0.003757
			 0.005028 -0.182291  0.001213
			 0.001425 -0.183894  0.001155
			 0.003515 -0.184883 -0.000941
			 0.004748 -0.183969  0.004129
			 0.004138 -0.185817  0.002168
			 0.003656 -0.186320  0.002936
		</DataArray>
	</Points>
			<Polys>
				<DataArray type="Int32" Name="connectivity" format="ascii">
					0 1 2 3 
					1 0 4 5 
					0 3 6 4 
					2 1 5 7 
					3 2 7 6 
					5 4 8 9 
					4 6 10 8 
					7 5 9 11 
					6 7 11 10 
					9 8 12 13 
					8 10 14 12 
					11 9 13 15 
					10 11 15 14 
					13 12 16 17 
					12 14 18 16 
					15 13 17 19 
					14 15 19 18 
					17 16 20 21 
					16 18 22 20 
					19 17 21 23 
					18 19 23 22 
					21 20 24 25 
					20 22 26 24 
					23 21 25 
					22 23 25 26 
					25 24 26 
				</DataArray>
				<DataArray type="Int32" Name="offsets" format="ascii">
					4 8 12 16 20 24 28 32 36 40 44 48 52 56 60 64 68 72 76 80 84 88 92 95 99 102 
				</DataArray>
			</Polys>
		</Piece>
	</PolyData>
</VTKFile>
