<?xml version="1.0"?>
<VTKFile type="PolyData" version="0.1" byte_order="LittleEndian" compressor="vtkZLibDataCompressor">
	<PolyData>
		<Piece NumberOfPoints="80" NumberOfVerts="0" NumberOfLines="0" NumberOfStrips="0" NumberOfPolys="86">
		<PointData Normals="Normals">
		<DataArray type="Float32" Name="Normals" NumberOfComponents="3" format="ascii">
			-0.947200  0.075423 -0.311648
			-0.774059  0.587807 -0.235194
			-0.506022  0.365241 -0.781371
			-0.720929 -0.226317 -0.655013
			-0.924493 -0.362918  0.116638
			-0.729731  0.419366  0.540023
			-0.549283 -0.804150 -0.227224
			-0.051710  0.972329 -0.227821
			-0.133475  0.608089 -0.782568
			-0.134264  0.784229  0.605770
			-0.349344 -0.218809 -0.911088
			-0.252902 -0.890733 -0.377672
			-0.505012 -0.788858 -0.350238
			-0.907347 -0.416480  0.057151
			-0.798882  0.258274  0.543215
			-0.276432  0.604849  0.746822
			-0.227697 -0.872852 -0.431606
			 0.559566  0.790266 -0.249730
			 0.326557  0.707361 -0.626898
			 0.494763  0.685122  0.534618
			 0.132520  0.024228 -0.990884
			 0.783196  0.226545 -0.579035
			 0.389935  0.595231  0.702603
			 0.208515 -0.860933 -0.464021
			 0.476954 -0.807867 -0.346217
			-0.485528 -0.658919 -0.574533
			-0.944392 -0.304556 -0.123975
			-0.119625 -0.732532 -0.670139
			-0.843640  0.247913  0.476246
			-0.314374  0.560240  0.766355
			 0.345875  0.625627  0.699258
			 0.548833 -0.602238 -0.579734
			 0.882332  0.387625 -0.266903
			 0.966486  0.043145  0.253066
			 0.957314  0.053914  0.283978
			 0.767436 -0.596239 -0.235672
			 0.973408  0.172055  0.151240
			-0.490036 -0.604835 -0.627726
			-0.906991 -0.333223 -0.257544
			-0.059411 -0.662900 -0.746347
			-0.901150  0.231054  0.366801
			 0.602468 -0.476202 -0.640519
			-0.348944  0.609524  0.711841
			 0.230960  0.698219  0.677604
			 0.937974  0.325010  0.120724
			-0.125950 -0.504194 -0.854357
			-0.615907 -0.502660 -0.606623
			-0.953125 -0.245811 -0.176434
			-0.871782  0.311098  0.378436
			 0.518593 -0.247600 -0.818386
			-0.334499  0.671204  0.661511
			 0.825426  0.564383  0.011984
			 0.129595  0.786583  0.603732
			-0.187999 -0.401497 -0.896357
			-0.829400 -0.464383 -0.310553
			 0.323891 -0.366858 -0.872072
			-0.076428 -0.630728 -0.772231
			-0.956849 -0.256338  0.136860
			-0.817788  0.420829  0.392588
			-0.344138  0.732078  0.587904
			 0.506525 -0.099937 -0.856414
			 0.838105  0.458140 -0.296122
			 0.695001  0.698500  0.170500
			 0.015721  0.832356  0.554019
			 0.447516 -0.747976 -0.490164
			 0.105661 -0.879420 -0.464172
			-0.455531 -0.858686  0.234838
			-0.685709 -0.539426  0.488695
			 0.264732 -0.875761 -0.403682
			 0.751525 -0.613524 -0.242484
			-0.816995  0.093357  0.569037
			-0.287476  0.385664  0.876710
			 0.136239  0.459434  0.877701
			 0.961825 -0.180530  0.205674
			 0.808906  0.073614  0.583312
			 0.461179  0.533576  0.708950
			 0.290604 -0.867350  0.404047
			 0.479163 -0.793992  0.374139
			 0.001010 -0.462010  0.886874
			 0.375836 -0.359473  0.854123
		</DataArray>
	</PointData>
	<Points>
		<DataArray type="Float32" NumberOfComponents="3" format="ascii">
			-0.013275 -0.003696  0.007152
			-0.011964  0.001379  0.007465
			-0.009459 -0.001244  0.003721
			-0.010898 -0.005589  0.002403
			-0.013024 -0.006364  0.010091
			-0.012177 -0.002553  0.012365
			-0.010015 -0.007601  0.005919
			-0.005524  0.004935  0.005517
			-0.005112 -0.000427  0.002958
			-0.007467  0.003745  0.010792
			-0.006834 -0.005565 -0.001078
			-0.006112 -0.008138  0.002779
			-0.009080 -0.008942  0.009734
			-0.011882 -0.007717  0.012412
			-0.010915 -0.005935  0.014672
			-0.007178 -0.001600  0.015782
			-0.005123 -0.010576  0.009059
			 0.000206  0.002881  0.007118
			-0.001486 -0.000012  0.003801
			-0.000912  0.002276  0.011908
			-0.002061 -0.004758 -0.002455
			 0.001903 -0.003771  0.001298
			-0.001576 -0.002656  0.015783
			-0.001999 -0.008587  0.002485
			-0.000555 -0.010650  0.009069
			-0.007555 -0.014317  0.015276
			-0.010260 -0.012993  0.017117
			-0.004306 -0.014535  0.013633
			-0.009828 -0.011366  0.018871
			-0.005686 -0.008605  0.021335
			-0.001328 -0.007783  0.020574
			-0.000756 -0.014855  0.014591
			 0.002394 -0.001049  0.006644
			 0.002671 -0.002707  0.011222
			 0.002084 -0.005688  0.014041
			 0.000294 -0.008850  0.005273
			 0.002750 -0.009256  0.018647
			-0.005988 -0.024547  0.024118
			-0.008334 -0.023889  0.025108
			-0.002833 -0.024873  0.023319
			-0.008983 -0.021783  0.026801
			 0.001125 -0.024307  0.023779
			-0.003594 -0.019302  0.029968
			 0.000503 -0.019132  0.030394
			 0.004432 -0.020212  0.028483
			-0.003197 -0.032425  0.029658
			-0.005683 -0.033012  0.031191
			-0.007665 -0.032662  0.033855
			-0.006737 -0.030305  0.036532
			 0.002530 -0.030771  0.029660
			-0.001781 -0.026845  0.038244
			 0.005450 -0.025945  0.035319
			 0.002401 -0.025716  0.037671
			-0.003155 -0.040189  0.031786
			-0.005141 -0.039848  0.034442
			 0.000468 -0.037617  0.033775
			 0.004654 -0.035863  0.032932
			-0.007371 -0.036784  0.037893
			-0.006774 -0.032136  0.039376
			-0.001179 -0.029776  0.041641
			 0.007029 -0.034686  0.030709
			 0.006843 -0.032236  0.034867
			 0.007234 -0.028544  0.039203
			 0.003095 -0.028426  0.041242
			 0.002104 -0.040248  0.035236
			-0.001722 -0.043175  0.033783
			-0.003740 -0.042621  0.038245
			-0.005023 -0.038124  0.041942
			 0.006463 -0.038665  0.035022
			 0.008916 -0.037170  0.033868
			-0.006487 -0.034204  0.042369
			-0.001549 -0.031975  0.044622
			 0.003724 -0.030120  0.044085
			 0.008664 -0.036467  0.037733
			 0.008009 -0.032349  0.042606
			 0.005519 -0.030170  0.043724
			 0.001315 -0.040989  0.039154
			 0.005917 -0.037820  0.039870
			-0.001324 -0.037272  0.044032
			 0.004714 -0.033715  0.044022
		</DataArray>
	</Points>
			<Polys>
				<DataArray type="Int32" Name="connectivity" format="ascii">
					0 1 2 
					2 3 0 
					1 0 4 5 
					0 3 6 4 
					7 8 2 1 
					7 1 5 9 
					3 2 8 10 
					11 6 3 10 
					4 6 12 13 
					4 13 14 5 
					15 9 5 14 
					16 12 6 11 
					17 18 8 7 
					17 7 9 19 
					10 8 20 
					20 8 18 21 
					19 9 15 22 
					10 20 23 11 
					11 23 24 16 
					13 12 25 26 
					16 27 25 12 
					28 14 13 26 
					15 14 28 29 
					22 15 29 30 
					16 24 31 27 
					32 18 17 
					32 17 19 33 
					21 18 32 
					19 22 34 33 
					20 21 35 23 
					33 35 21 32 
					34 22 30 36 
					35 24 23 
					36 31 24 34 
					24 35 33 34 
					26 25 37 38 
					39 37 25 27 
					40 28 26 38 
					27 31 41 39 
					29 28 40 42 
					30 29 42 43 
					36 30 43 44 
					44 41 31 36 
					45 46 37 39 
					46 47 38 37 
					40 38 47 48 
					49 45 39 41 
					48 50 42 40 
					51 49 41 44 
					43 42 50 52 
					52 51 44 43 
					53 54 45 
					45 55 53 
					56 55 45 49 
					45 54 46 
					54 57 47 46 
					48 47 57 58 
					58 59 50 48 
					49 60 56 
					60 49 61 
					61 49 51 62 
					52 50 59 63 
					63 62 51 52 
					55 64 65 53 
					53 65 66 54 
					54 67 57 
					66 67 54 
					68 64 55 56 
					56 60 69 68 
					57 70 58 
					57 67 70 
					70 71 59 58 
					63 59 71 72 
					73 69 60 61 
					74 73 61 62 
					75 74 62 
					63 72 75 62 
					66 65 64 76 
					76 64 68 77 
					76 78 67 66 
					78 71 70 67 
					77 68 69 73 
					72 71 78 79 
					79 74 75 72 
					73 74 79 77 
					77 79 78 76 
				</DataArray>
				<DataArray type="Int32" Name="offsets" format="ascii">
					3 6 10 14 18 22 26 30 34 38 42 46 50 54 57 61 65 69 73 77 81 85 89 93 97 100 104 107 111 115 119 123 126 130 134 138 142 146 150 154 158 162 166 170 174 178 182 186 190 194 198 201 204 208 211 215 219 223 226 229 233 237 241 245 249 252 255 259 263 266 269 273 277 281 285 288 292 296 300 304 308 312 316 320 324 328 
				</DataArray>
			</Polys>
		</Piece>
	</PolyData>
</VTKFile>
