<?xml version="1.0"?>
<VTKFile type="PolyData" version="0.1" byte_order="LittleEndian" compressor="vtkZLibDataCompressor">
	<PolyData>
		<Piece NumberOfPoints="42" NumberOfVerts="0" NumberOfLines="0" NumberOfStrips="0" NumberOfPolys="39">
		<PointData Normals="Normals">
		<DataArray type="Float32" Name="Normals" NumberOfComponents="3" format="ascii">
			 0.819830  0.296616  0.489793
			 0.859542  0.222150 -0.460258
			-0.073000  0.376510 -0.923532
			-0.889140  0.343474 -0.302417
			-0.801718  0.344661  0.488321
			 0.082861 -0.610491 -0.787677
			 0.860664 -0.218634  0.459843
			 0.896409 -0.259339 -0.359437
			-0.026733 -0.200526  0.979324
			-0.022004 -0.136921  0.990338
			 0.049577 -0.310799 -0.949182
			-0.914225 -0.179121 -0.363467
			-0.855002 -0.131763  0.501608
			 0.401977 -0.912427 -0.076756
			-0.452367 -0.724601  0.519921
			-0.687885 -0.722983  0.064100
			-0.932590 -0.217045 -0.288388
			 0.258049 -0.097419 -0.961208
			 0.895947 -0.087557 -0.435445
			 0.888019 -0.076611  0.453379
			 0.956854 -0.095616 -0.274385
			 0.009600 -0.050802  0.998663
			 0.197827 -0.214764 -0.956421
			-0.843955 -0.052019  0.533886
			-0.909883 -0.133937 -0.392649
			 0.738860 -0.071171  0.670090
			 0.304320 -0.873826  0.379232
			-0.248379 -0.511316  0.822717
			-0.248351 -0.104028  0.963068
			-0.744491 -0.237390  0.624003
			-0.769869 -0.115478  0.627668
			-0.923274 -0.064702 -0.378653
			 0.242541  0.070547 -0.967573
			 0.904376  0.275150 -0.326185
			 0.733910  0.300383  0.609217
			 0.856759  0.089447  0.507901
			 0.951629  0.095364 -0.292075
			-0.023429 -0.026098  0.999385
			 0.231552 -0.091065 -0.968551
			-0.795700 -0.047945  0.603790
			-0.921244 -0.117231 -0.370899
			-0.135815 -0.049648  0.989489
		</DataArray>
	</PointData>
	<Points>
		<DataArray type="Float32" NumberOfComponents="3" format="ascii">
			 0.000197 -0.136761  0.026993
			-0.000621 -0.136515  0.020681
			-0.005845 -0.136646  0.016031
			-0.010643 -0.136988  0.020824
			-0.010286 -0.137270  0.025943
			-0.005033 -0.170120  0.021802
			-0.002022 -0.142443  0.026726
			-0.001980 -0.142045  0.021401
			-0.004559 -0.136792  0.029488
			-0.004747 -0.141910  0.028619
			-0.004987 -0.142405  0.016698
			-0.009857 -0.142538  0.020899
			-0.009521 -0.142562  0.025233
			-0.001755 -0.169340  0.024916
			-0.004134 -0.168665  0.025841
			-0.005423 -0.169769  0.021965
			-0.007772 -0.164959  0.022179
			-0.003186 -0.166373  0.018645
			-0.000769 -0.164532  0.023476
			-0.002661 -0.148366  0.026527
			-0.003216 -0.147607  0.022311
			-0.004781 -0.147283  0.027882
			-0.005190 -0.148322  0.018249
			-0.008404 -0.147768  0.026051
			-0.009019 -0.148069  0.020849
			 0.002004 -0.165141  0.027395
			-0.001857 -0.168604  0.028172
			-0.003366 -0.168629  0.027837
			-0.003605 -0.163252  0.027937
			-0.006268 -0.163857  0.025400
			-0.007235 -0.158582  0.026023
			-0.008460 -0.159315  0.021870
			-0.004182 -0.160491  0.020006
			-0.002226 -0.158921  0.023047
			-0.000892 -0.160432  0.027536
			-0.002394 -0.154813  0.027136
			-0.003243 -0.153348  0.022618
			-0.005044 -0.152620  0.027614
			-0.005141 -0.154487  0.018938
			-0.007692 -0.153126  0.026464
			-0.008668 -0.153678  0.021506
			-0.004271 -0.157922  0.027814
		</DataArray>
	</Points>
			<Polys>
				<DataArray type="Int32" Name="connectivity" format="ascii">
					0 1 2 3 4 5 
					1 0 6 7 
					0 8 9 6 
					2 1 7 10 
					3 2 10 11 
					4 3 11 12 
					8 4 12 9 
					5 13 14 15 
					16 17 5 15 
					17 18 13 5 
					7 6 19 20 
					6 9 21 19 
					10 7 20 22 
					9 12 23 21 
					11 10 22 24 
					12 11 24 23 
					18 25 26 13 
					13 26 27 14 
					28 29 14 27 
					29 16 15 14 
					30 31 16 29 
					31 32 17 16 
					32 33 18 17 
					33 34 25 18 
					20 19 35 36 
					19 21 37 35 
					22 20 36 38 
					21 23 39 37 
					24 22 38 40 
					23 24 40 39 
					25 28 27 26 
					34 41 28 25 
					41 30 29 28 
					37 39 30 41 
					39 40 31 30 
					40 38 32 31 
					38 36 33 32 
					36 35 34 33 
					35 37 41 34 
				</DataArray>
				<DataArray type="Int32" Name="offsets" format="ascii">
					6 10 14 18 22 26 30 34 38 42 46 50 54 58 62 66 70 74 78 82 86 90 94 98 102 106 110 114 118 122 126 130 134 138 142 146 150 154 158 
				</DataArray>
			</Polys>
		</Piece>
	</PolyData>
</VTKFile>
