<?xml version="1.0"?>
<VTKFile type="PolyData" version="0.1" byte_order="LittleEndian" compressor="vtkZLibDataCompressor">
	<PolyData>
		<Piece NumberOfPoints="42" NumberOfVerts="0" NumberOfLines="0" NumberOfStrips="0" NumberOfPolys="39">
		<PointData Normals="Normals">
		<DataArray type="Float32" Name="Normals" NumberOfComponents="3" format="ascii">
			 0.821498  0.349209  0.450771
			 0.852687  0.184858 -0.488623
			-0.086484  0.277075 -0.956948
			-0.901619  0.289639 -0.321237
			-0.802961  0.367928  0.468916
			 0.091905 -0.692393 -0.715644
			 0.869337 -0.161924  0.466942
			 0.895059 -0.281865 -0.345573
			-0.012074 -0.114054  0.993401
			-0.008235 -0.046973  0.998862
			 0.043676 -0.409417 -0.911302
			-0.912151 -0.240800 -0.331655
			-0.845885 -0.107991  0.522318
			 0.408814 -0.912607 -0.004338
			-0.432419 -0.690865  0.579413
			-0.664211 -0.735939  0.131213
			-0.927919 -0.272068 -0.254845
			 0.249310 -0.186352 -0.950325
			 0.892262 -0.111008 -0.437659
			 0.894521 -0.014866  0.446779
			 0.955340 -0.102944 -0.276999
			 0.022328  0.043673  0.998796
			 0.190393 -0.308684 -0.931914
			-0.836439 -0.022312  0.547605
			-0.909815 -0.197208 -0.365165
			 0.740933  0.010420  0.671498
			 0.315713 -0.835211  0.450275
			-0.231573 -0.442945  0.866126
			-0.235242 -0.020904  0.971712
			-0.731720 -0.202556  0.650813
			-0.760266 -0.077296  0.644997
			-0.925408 -0.124418 -0.357966
			 0.231045 -0.013727 -0.972846
			 0.892111  0.272340 -0.360513
			 0.728577  0.382271  0.568371
			 0.859164  0.160954  0.485727
			 0.945681  0.092772 -0.311578
			-0.011078  0.068404  0.997596
			 0.223332 -0.181335 -0.957727
			-0.787672 -0.010386  0.616007
			-0.921747 -0.177972 -0.344541
			-0.123399  0.040477  0.991531
		</DataArray>
	</PointData>
	<Points>
		<DataArray type="Float32" NumberOfComponents="3" format="ascii">
			 0.004432 -0.132972 -0.001143
			 0.003540 -0.133297 -0.007440
			-0.001727 -0.133890 -0.011988
			-0.006460 -0.133857 -0.007121
			-0.006040 -0.133676 -0.002004
			-0.000059 -0.165397 -0.003170
			 0.002347 -0.138457 -0.000856
			 0.002322 -0.138540 -0.006196
			-0.000292 -0.132841  0.001406
			-0.000368 -0.137815  0.001015
			-0.000726 -0.139330 -0.010805
			-0.005543 -0.139150 -0.006546
			-0.005159 -0.138791 -0.002233
			 0.003231 -0.164341 -0.000185
			 0.000849 -0.163643  0.000706
			-0.000455 -0.165052 -0.003035
			-0.002914 -0.160460 -0.003233
			 0.001663 -0.162067 -0.006682
			 0.004086 -0.159855 -0.002074
			 0.001846 -0.144148 -0.000501
			 0.001228 -0.143796 -0.004761
			-0.000282 -0.143019  0.000777
			-0.000772 -0.144858 -0.008713
			-0.003911 -0.143686 -0.000953
			-0.004575 -0.144435 -0.006097
			 0.006914 -0.160062  0.001847
			 0.003147 -0.163354  0.002991
			 0.001637 -0.163425  0.002680
			 0.001272 -0.158275  0.002287
			-0.001402 -0.159107 -0.000148
			-0.002487 -0.154019 -0.000001
			-0.003738 -0.155097 -0.004052
			 0.000543 -0.156333 -0.005856
			 0.002494 -0.154542 -0.002999
			 0.003911 -0.155581  0.001592
			 0.002273 -0.150258  0.000696
			 0.001341 -0.149261 -0.003926
			-0.000421 -0.148151  0.001005
			-0.000568 -0.150694 -0.007460
			-0.003067 -0.148767 -0.000058
			-0.004083 -0.149739 -0.004931
			 0.000478 -0.153195  0.001682
		</DataArray>
	</Points>
			<Polys>
				<DataArray type="Int32" Name="connectivity" format="ascii">
					0 1 2 3 4 5 
					1 0 6 7 
					0 8 9 6 
					2 1 7 10 
					3 2 10 11 
					4 3 11 12 
					8 4 12 9 
					5 13 14 15 
					16 17 5 15 
					17 18 13 5 
					7 6 19 20 
					6 9 21 19 
					10 7 20 22 
					9 12 23 21 
					11 10 22 24 
					12 11 24 23 
					18 25 26 13 
					13 26 27 14 
					28 29 14 27 
					29 16 15 14 
					30 31 16 29 
					31 32 17 16 
					32 33 18 17 
					33 34 25 18 
					20 19 35 36 
					19 21 37 35 
					22 20 36 38 
					21 23 39 37 
					24 22 38 40 
					23 24 40 39 
					25 28 27 26 
					34 41 28 25 
					41 30 29 28 
					37 39 30 41 
					39 40 31 30 
					40 38 32 31 
					38 36 33 32 
					36 35 34 33 
					35 37 41 34 
				</DataArray>
				<DataArray type="Int32" Name="offsets" format="ascii">
					6 10 14 18 22 26 30 34 38 42 46 50 54 58 62 66 70 74 78 82 86 90 94 98 102 106 110 114 118 122 126 130 134 138 142 146 150 154 158 
				</DataArray>
			</Polys>
		</Piece>
	</PolyData>
</VTKFile>
