<?xml version="1.0"?>
<VTKFile type="PolyData" version="0.1" byte_order="LittleEndian" compressor="vtkZLibDataCompressor">
	<PolyData>
		<Piece NumberOfPoints="49" NumberOfVerts="0" NumberOfLines="0" NumberOfStrips="0" NumberOfPolys="55">
		<PointData Normals="Normals">
		<DataArray type="Float32" Name="Normals" NumberOfComponents="3" format="ascii">
			-0.488842  0.250339  0.835681
			-0.883425 -0.282727  0.373664
			-0.801265 -0.292718  0.521815
			-0.466381  0.258481  0.845976
			-0.387705  0.293154  0.873925
			-0.409464  0.320319  0.854245
			-0.333429  0.928966  0.160770
			-0.569887  0.805911  0.160424
			-0.822939  0.494409 -0.279878
			-0.526390 -0.620900 -0.580859
			-0.525028 -0.692587 -0.494640
			-0.640269  0.212605 -0.738142
			-0.850418 -0.015108  0.525891
			-0.285091  0.328302  0.900522
			-0.709648 -0.498882 -0.497511
			 0.494787  0.206251  0.844184
			 0.360835  0.268745  0.893070
			 0.548263  0.338667  0.764665
			 0.297930  0.953554  0.044419
			 0.009283  0.802432 -0.596672
			-0.296804  0.749118 -0.592224
			 0.034333 -0.520462 -0.853194
			 0.102456 -0.590363 -0.800609
			-0.220887  0.268532 -0.937603
			 0.010089 -0.492209 -0.870419
			-0.838827 -0.097755  0.535550
			-0.188323  0.322495  0.927648
			-0.743319 -0.464556 -0.481315
			 0.697303  0.437972  0.567406
			-0.025858 -0.450904 -0.892198
			 0.990991 -0.116407 -0.066222
			 0.984874 -0.162825  0.059264
			 0.982722  0.043570 -0.179887
			 0.779535  0.545297 -0.308181
			 0.909296 -0.018020 -0.415759
			 0.411587  0.374604 -0.830824
			 0.658813 -0.416677 -0.626375
			 0.681983 -0.367654 -0.632241
			 0.631021 -0.285240 -0.721422
			 0.468915 -0.352612 -0.809805
			-0.783088 -0.431874  0.447501
			-0.178652  0.115668  0.977090
			-0.211161 -0.568043 -0.795449
			 0.725380  0.220459  0.652090
			 0.826044 -0.286319 -0.485461
			 0.368800 -0.403276 -0.837469
			-0.403486 -0.837655  0.368149
			 0.245407 -0.608808 -0.754406
			 0.539482 -0.637518  0.550027
		</DataArray>
	</PointData>
	<Points>
		<DataArray type="Float32" NumberOfComponents="3" format="ascii">
			 0.006243 -0.074957  0.059788
			 0.003395 -0.077614  0.058615
			 0.005987 -0.079792  0.060412
			 0.008052 -0.078364  0.060576
			 0.010878 -0.077321  0.062114
			 0.011279 -0.072604  0.061244
			 0.010649 -0.068461  0.058765
			 0.004987 -0.071344  0.057885
			 0.002681 -0.073434  0.056778
			 0.004930 -0.077763  0.055419
			 0.006123 -0.079228  0.057202
			 0.003764 -0.074448  0.054814
			 0.008183 -0.084321  0.062719
			 0.010147 -0.083051  0.064403
			 0.008797 -0.085495  0.060615
			 0.013983 -0.076503  0.063179
			 0.014340 -0.072653  0.062693
			 0.014015 -0.082315  0.064436
			 0.013641 -0.068138  0.059484
			 0.011444 -0.070828  0.055668
			 0.006887 -0.072424  0.055166
			 0.009696 -0.076444  0.053068
			 0.009638 -0.078464  0.055124
			 0.008619 -0.073778  0.052164
			 0.011270 -0.085269  0.059311
			 0.009306 -0.087903  0.064691
			 0.011385 -0.087592  0.065393
			 0.009736 -0.089448  0.062655
			 0.015909 -0.087091  0.065924
			 0.012077 -0.090222  0.062135
			 0.015078 -0.077140  0.059956
			 0.015269 -0.074029  0.058979
			 0.014634 -0.083110  0.061767
			 0.015525 -0.070420  0.057228
			 0.015728 -0.087917  0.063559
			 0.013635 -0.072710  0.052868
			 0.012661 -0.075513  0.054369
			 0.012827 -0.077888  0.056338
			 0.013539 -0.084591  0.059936
			 0.014417 -0.089413  0.062367
			 0.010293 -0.094538  0.065397
			 0.013277 -0.090401  0.067079
			 0.011951 -0.093956  0.063832
			 0.016491 -0.091780  0.066972
			 0.016959 -0.093212  0.065663
			 0.014948 -0.093382  0.064562
			 0.012560 -0.096206  0.066389
			 0.014807 -0.096000  0.065721
			 0.016050 -0.096602  0.067109
		</DataArray>
	</Points>
			<Polys>
				<DataArray type="Int32" Name="connectivity" format="ascii">
					0 1 2 3 
					3 4 5 0 
					5 6 7 0 
					0 7 8 1 
					2 1 9 10 
					9 1 8 11 
					3 2 12 13 
					2 10 14 12 
					3 13 4 
					5 4 15 16 
					4 13 17 15 
					6 5 16 18 
					19 6 18 
					6 19 20 7 
					7 20 8 
					8 20 11 
					9 21 22 10 
					11 23 21 9 
					10 22 24 14 
					11 20 23 
					12 25 26 13 
					12 14 27 25 
					13 26 28 17 
					14 24 29 27 
					16 15 30 31 
					30 15 17 32 
					31 33 18 16 
					32 17 28 34 
					19 18 33 
					33 35 19 
					19 35 23 20 
					21 36 37 22 
					21 23 35 36 
					22 37 38 24 
					24 38 39 29 
					25 40 41 26 
					25 27 42 40 
					26 41 43 28 
					27 29 42 
					34 28 43 44 
					29 39 45 42 
					32 38 37 30 
					30 37 36 31 
					36 35 33 31 
					34 39 38 32 
					44 45 39 34 
					40 46 41 
					47 46 40 42 
					48 43 41 
					41 46 48 
					42 45 47 
					48 44 43 
					47 45 44 
					48 47 44 
					48 46 47 
				</DataArray>
				<DataArray type="Int32" Name="offsets" format="ascii">
					4 8 12 16 20 24 28 32 35 39 43 47 50 54 57 60 64 68 72 75 79 83 87 91 95 99 103 107 110 113 117 121 125 129 133 137 141 145 148 152 156 160 164 168 172 176 179 183 186 189 192 195 198 201 204 
				</DataArray>
			</Polys>
		</Piece>
	</PolyData>
</VTKFile>
