<?xml version="1.0"?>
<VTKFile type="PolyData" version="0.1" byte_order="LittleEndian" compressor="vtkZLibDataCompressor">
	<PolyData>
		<Piece NumberOfPoints="106" NumberOfVerts="0" NumberOfLines="0" NumberOfStrips="0" NumberOfPolys="113">
		<PointData Normals="Normals">
		<DataArray type="Float32" Name="Normals" NumberOfComponents="3" format="ascii">
			 0.092413 -0.006157  0.995702
			-0.507709 -0.470968  0.721402
			 0.163013 -0.879363  0.447378
			 0.252446 -0.487617  0.835763
			 0.032382  0.168572  0.985157
			-0.745809 -0.002739  0.666155
			 0.374561 -0.184950  0.908569
			-0.129518 -0.646982  0.751425
			 0.614701  0.211227  0.759951
			-0.689398 -0.457917 -0.561287
			-0.275144 -0.911944 -0.304392
			-0.759788 -0.233458 -0.606811
			-0.064337 -0.991633  0.111913
			-0.010117  0.305877  0.952017
			-0.834104  0.177190  0.522373
			 0.589435  0.400317  0.701650
			-0.828805 -0.160933 -0.535894
			 0.834496 -0.476763  0.276249
			 0.104931 -0.926607  0.361094
			 0.965233  0.177255  0.192109
			 0.913456  0.387109  0.125477
			-0.234599 -0.336225 -0.912094
			-0.076387 -0.876810 -0.474730
			-0.019394  0.103052 -0.994487
			 0.048826  0.147509 -0.987855
			 0.299347 -0.945088 -0.131151
			 0.008117 -0.886533 -0.462594
			-0.033244  0.260085  0.965013
			-0.866377  0.123266  0.483939
			 0.561915  0.299320  0.771142
			-0.888458 -0.170703 -0.426031
			 0.951836  0.260741  0.161313
			-0.231193 -0.192747 -0.953624
			 0.893118 -0.447953 -0.040976
			 0.962486  0.154383 -0.223129
			 0.854854  0.324882 -0.404570
			 0.882667  0.118253 -0.454879
			 0.446900 -0.462751 -0.765599
			 0.629196  0.296842 -0.718329
			 0.650739  0.400913 -0.644831
			 0.562746  0.013660 -0.826517
			-0.058768  0.198914  0.978253
			-0.877584  0.085472  0.471743
			 0.621928  0.149668  0.768638
			-0.907074 -0.110796 -0.406130
			 0.984603  0.080433  0.155200
			-0.421970 -0.176650 -0.889233
			 0.869156 -0.036419 -0.493195
			 0.353313 -0.153006 -0.922908
			-0.029759  0.160701  0.986554
			-0.841103  0.099001  0.531737
			 0.675730  0.060952  0.734625
			-0.906793 -0.031107 -0.420427
			 0.992984 -0.013276  0.117502
			-0.455062 -0.109447 -0.883708
			 0.868905 -0.058456 -0.491515
			 0.253361 -0.148136 -0.955962
			-0.103834  0.138408  0.984917
			-0.801905  0.129736  0.583196
			 0.614984  0.021279  0.788252
			-0.918828  0.020361 -0.394132
			 0.992358 -0.080134  0.093835
			-0.447431 -0.069678 -0.891600
			 0.886973 -0.081636 -0.454548
			 0.302660 -0.109050 -0.946840
			-0.273620  0.112187  0.955273
			-0.802599  0.138873  0.580128
			 0.452939  0.023317  0.891237
			-0.942551  0.043930 -0.331160
			 0.979450 -0.100217  0.175024
			-0.462628 -0.054727 -0.884862
			 0.882341 -0.178653 -0.435381
			 0.298357 -0.160013 -0.940946
			-0.376410  0.069226  0.923863
			-0.830344  0.107975  0.546691
			 0.363118 -0.008899  0.931701
			-0.965543  0.024216 -0.259115
			 0.953862 -0.118526  0.275861
			-0.529771 -0.097356 -0.842534
			 0.864689 -0.257403 -0.431343
			 0.214862 -0.252566 -0.943422
			-0.403392  0.029561  0.914550
			-0.872407  0.041958  0.486975
			 0.307510 -0.190943  0.932190
			-0.970264 -0.046729 -0.237495
			 0.899786 -0.340422  0.272943
			-0.595478 -0.178459 -0.783300
			 0.798784 -0.336176 -0.498929
			 0.105244 -0.298263 -0.948664
			-0.354198  0.060569  0.933207
			-0.924574  0.119167  0.361886
			 0.385800 -0.309144  0.869246
			-0.951266  0.061202 -0.302237
			 0.898726 -0.436555  0.041371
			-0.846550 -0.239085 -0.475596
			 0.749238 -0.282061 -0.599236
			-0.096599 -0.382394 -0.918936
			-0.186043  0.740441  0.645860
			-0.293868  0.852261  0.432773
			 0.524221  0.791691  0.313716
			-0.482104  0.872150 -0.083248
			 0.858659  0.407125 -0.311374
			-0.638621  0.649189 -0.413179
			 0.616307  0.514177 -0.596479
			 0.014040  0.504064 -0.863552
			 0.222756  0.967314 -0.121173
		</DataArray>
	</PointData>
	<Points>
		<DataArray type="Float32" NumberOfComponents="3" format="ascii">
			-0.007618 -0.076319  0.019802
			-0.012697 -0.080114  0.021010
			-0.007435 -0.085150  0.018142
			-0.007831 -0.083234  0.020521
			-0.007481 -0.069404  0.019482
			-0.012497 -0.073005  0.021040
			 0.000117 -0.078599  0.021474
			-0.003063 -0.084131  0.017824
			 0.000938 -0.071294  0.020526
			-0.009808 -0.079616  0.010587
			-0.007403 -0.084901  0.014822
			-0.011538 -0.073173  0.008039
			-0.004933 -0.084533  0.015381
			-0.008356 -0.062692  0.017897
			-0.013217 -0.066234  0.018089
			-0.001675 -0.064944  0.017327
			-0.012035 -0.066060  0.007434
			 0.001202 -0.080258  0.018581
			-0.003473 -0.085015  0.016628
			 0.001970 -0.073632  0.016470
			-0.000659 -0.066451  0.015178
			-0.005771 -0.079485  0.008211
			-0.007109 -0.084971  0.012709
			-0.005195 -0.072706  0.006071
			-0.006889 -0.065634  0.005527
			-0.002511 -0.084604  0.011487
			-0.002104 -0.083774  0.009666
			-0.009279 -0.055972  0.016137
			-0.013476 -0.059201  0.015813
			-0.004465 -0.058248  0.015150
			-0.012345 -0.058812  0.007431
			-0.002634 -0.059631  0.013845
			-0.009270 -0.058858  0.004789
			 0.002649 -0.079573  0.010870
			 0.003726 -0.073026  0.010321
			-0.000269 -0.066632  0.010734
			-0.003547 -0.060570  0.009012
			 0.002326 -0.079149  0.006284
			 0.002067 -0.071961  0.005790
			-0.003239 -0.067731  0.007965
			-0.005032 -0.060290  0.007276
			-0.009499 -0.049117  0.014948
			-0.013983 -0.052146  0.013611
			-0.005715 -0.050900  0.014196
			-0.013046 -0.051674  0.007157
			-0.003492 -0.052725  0.011570
			-0.011285 -0.051944  0.005017
			-0.004512 -0.053712  0.007468
			-0.005994 -0.052888  0.005788
			-0.009024 -0.042269  0.013840
			-0.013836 -0.044946  0.012063
			-0.005276 -0.043607  0.012508
			-0.013440 -0.044546  0.006584
			-0.003769 -0.045560  0.009939
			-0.012021 -0.044776  0.005201
			-0.004483 -0.046443  0.006324
			-0.006693 -0.045880  0.004414
			-0.008175 -0.035454  0.012728
			-0.012946 -0.037635  0.011136
			-0.004303 -0.036243  0.011452
			-0.013255 -0.037400  0.005849
			-0.003610 -0.038218  0.009480
			-0.011730 -0.037538  0.004711
			-0.004527 -0.039141  0.005657
			-0.006648 -0.038621  0.003384
			-0.007549 -0.028568  0.012013
			-0.011901 -0.030358  0.010356
			-0.003922 -0.028770  0.011819
			-0.012636 -0.030281  0.005162
			-0.002677 -0.030938  0.009242
			-0.010970 -0.030404  0.003822
			-0.004113 -0.032026  0.005076
			-0.005781 -0.031281  0.002554
			-0.007126 -0.021622  0.011804
			-0.010954 -0.023046  0.009704
			-0.004383 -0.021361  0.012355
			-0.011994 -0.023155  0.004634
			-0.001476 -0.023730  0.008359
			-0.010159 -0.023288  0.002846
			-0.002309 -0.025130  0.003954
			-0.004303 -0.024069  0.001600
			-0.006584 -0.014689  0.012024
			-0.010697 -0.015722  0.008904
			-0.003830 -0.013625  0.012407
			-0.011708 -0.015993  0.004266
			-0.000008 -0.016591  0.007574
			-0.009571 -0.016204  0.001545
			-0.000772 -0.018246  0.002505
			-0.003521 -0.017118 -0.000354
			-0.006554 -0.007735  0.011950
			-0.011814 -0.008369  0.007870
			 0.000841 -0.007735  0.013456
			-0.011863 -0.008898  0.003198
			 0.002946 -0.009982  0.008744
			-0.009605 -0.009296 -0.000587
			 0.001232 -0.011589  0.000880
			-0.003979 -0.007165 -0.002865
			-0.005446 -0.001467  0.010773
			-0.012269 -0.001280  0.007673
			 0.004677 -0.001497  0.012415
			-0.009017 -0.000204  0.004950
			 0.003816 -0.002822  0.008474
			-0.009120 -0.000995  0.001911
			 0.001114 -0.004347 -0.000596
			-0.005178 -0.004638 -0.003739
			-0.005299 -0.001296  0.003769
		</DataArray>
	</Points>
			<Polys>
				<DataArray type="Int32" Name="connectivity" format="ascii">
					0 1 2 3 
					4 5 1 0 
					6 0 3 7 
					8 4 0 6 
					1 9 10 2 
					5 11 9 1 
					2 10 12 
					3 2 12 
					7 3 12 
					13 14 5 4 
					15 13 4 8 
					14 16 11 5 
					17 6 7 18 
					19 8 6 17 
					18 7 12 
					20 15 8 19 
					9 21 22 10 
					11 23 21 9 
					10 22 12 
					16 24 23 11 
					25 18 12 
					26 25 12 
					22 26 12 
					27 28 14 13 
					29 27 13 15 
					28 30 16 14 
					31 29 15 20 
					30 32 24 16 
					33 17 25 
					34 19 17 33 
					18 25 17 
					35 20 19 34 
					36 31 20 35 
					21 37 26 22 
					23 38 37 21 
					24 39 38 23 
					32 40 39 24 
					37 33 25 26 
					41 42 28 27 
					43 41 27 29 
					42 44 30 28 
					45 43 29 31 
					44 46 32 30 
					47 45 31 36 
					46 48 40 32 
					38 34 33 37 
					39 35 34 38 
					40 36 35 39 
					48 47 36 40 
					49 50 42 41 
					51 49 41 43 
					50 52 44 42 
					53 51 43 45 
					52 54 46 44 
					55 53 45 47 
					54 56 48 46 
					56 55 47 48 
					57 58 50 49 
					59 57 49 51 
					58 60 52 50 
					61 59 51 53 
					60 62 54 52 
					63 61 53 55 
					62 64 56 54 
					64 63 55 56 
					65 66 58 57 
					67 65 57 59 
					66 68 60 58 
					69 67 59 61 
					68 70 62 60 
					71 69 61 63 
					70 72 64 62 
					72 71 63 64 
					73 74 66 65 
					75 73 65 67 
					74 76 68 66 
					77 75 67 69 
					76 78 70 68 
					79 77 69 71 
					78 80 72 70 
					80 79 71 72 
					81 82 74 73 
					83 81 73 75 
					82 84 76 74 
					85 83 75 77 
					84 86 78 76 
					87 85 77 79 
					86 88 80 78 
					88 87 79 80 
					89 90 82 81 
					91 89 81 83 
					90 92 84 82 
					93 91 83 85 
					92 94 86 84 
					95 93 85 87 
					94 96 88 86 
					96 95 87 88 
					97 98 90 89 
					99 97 89 91 
					98 100 92 90 
					101 99 91 93 
					100 102 94 92 
					103 101 93 95 
					102 104 96 94 
					104 103 95 96 
					105 98 97 
					105 97 99 
					105 100 98 
					105 99 101 
					105 102 100 
					105 101 103 
					105 104 102 
					105 103 104 
				</DataArray>
				<DataArray type="Int32" Name="offsets" format="ascii">
					4 8 12 16 20 24 27 30 33 37 41 45 49 53 56 60 64 68 71 75 78 81 84 88 92 96 100 104 107 111 114 118 122 126 130 134 138 142 146 150 154 158 162 166 170 174 178 182 186 190 194 198 202 206 210 214 218 222 226 230 234 238 242 246 250 254 258 262 266 270 274 278 282 286 290 294 298 302 306 310 314 318 322 326 330 334 338 342 346 350 354 358 362 366 370 374 378 382 386 390 394 398 402 406 410 413 416 419 422 425 428 431 434 
				</DataArray>
			</Polys>
		</Piece>
	</PolyData>
</VTKFile>
