<?xml version="1.0"?>
<VTKFile type="PolyData" version="0.1" byte_order="LittleEndian" compressor="vtkZLibDataCompressor">
	<PolyData>
		<Piece NumberOfPoints="27" NumberOfVerts="0" NumberOfLines="0" NumberOfStrips="0" NumberOfPolys="26">
		<PointData Normals="Normals">
		<DataArray type="Float32" Name="Normals" NumberOfComponents="3" format="ascii">
			-0.270903  0.444435  0.853867
			 0.918096  0.356919  0.172362
			-0.042224  0.694912 -0.717854
			-0.889932  0.453873 -0.044935
			-0.040723 -0.328442  0.943646
			 0.949938 -0.299695  0.088321
			-0.982703 -0.068668 -0.171989
			 0.225948 -0.248758 -0.941842
			-0.082011 -0.217724  0.972559
			 0.946220 -0.315679  0.070809
			-0.977056 -0.040385 -0.209118
			 0.181674 -0.296076 -0.937728
			-0.122048  0.159481  0.979628
			 0.995590 -0.089211  0.029024
			-0.979364  0.043841 -0.197293
			 0.125822 -0.180032 -0.975581
			 0.002121  0.286049  0.958213
			 0.992952  0.115157 -0.028036
			-0.991778 -0.081996 -0.098255
			 0.129723 -0.196160 -0.971953
			 0.173126  0.173489  0.969499
			 0.999946 -0.001079 -0.010323
			-0.928126 -0.341409  0.148395
			 0.200612 -0.630372 -0.749924
			 0.578541 -0.284155  0.764556
			 0.758327 -0.649866  0.051128
			-0.377230 -0.820112  0.430249
		</DataArray>
	</PointData>
	<Points>
		<DataArray type="Float32" NumberOfComponents="3" format="ascii">
			 0.006126 -0.136933 -0.026989
			 0.009136 -0.135150 -0.031307
			 0.007607 -0.135025 -0.035453
			 0.003247 -0.135065 -0.031654
			 0.005795 -0.139312 -0.027856
			 0.008733 -0.138210 -0.031639
			 0.003076 -0.138304 -0.032322
			 0.007145 -0.138483 -0.035382
			 0.005165 -0.141785 -0.028300
			 0.007519 -0.141019 -0.031290
			 0.003520 -0.141463 -0.031931
			 0.005884 -0.141363 -0.033824
			 0.004928 -0.144082 -0.028889
			 0.007022 -0.144093 -0.031146
			 0.003254 -0.144699 -0.031507
			 0.005258 -0.144706 -0.033190
			 0.005637 -0.146543 -0.028315
			 0.006632 -0.147058 -0.030468
			 0.003106 -0.147962 -0.031122
			 0.005293 -0.148522 -0.032908
			 0.006103 -0.148995 -0.027968
			 0.007026 -0.150062 -0.030031
			 0.003919 -0.150909 -0.030296
			 0.005594 -0.151921 -0.031942
			 0.006445 -0.151454 -0.027712
			 0.005824 -0.152828 -0.029400
			 0.005333 -0.153193 -0.028811
		</DataArray>
	</Points>
			<Polys>
				<DataArray type="Int32" Name="connectivity" format="ascii">
					0 1 2 3 
					1 0 4 5 
					0 3 6 4 
					2 1 5 7 
					3 2 7 6 
					5 4 8 9 
					4 6 10 8 
					7 5 9 11 
					6 7 11 10 
					9 8 12 13 
					8 10 14 12 
					11 9 13 15 
					10 11 15 14 
					13 12 16 17 
					12 14 18 16 
					15 13 17 19 
					14 15 19 18 
					17 16 20 21 
					16 18 22 20 
					19 17 21 23 
					18 19 23 22 
					21 20 24 25 
					20 22 26 24 
					23 21 25 
					22 23 25 26 
					25 24 26 
				</DataArray>
				<DataArray type="Int32" Name="offsets" format="ascii">
					4 8 12 16 20 24 28 32 36 40 44 48 52 56 60 64 68 72 76 80 84 88 92 95 99 102 
				</DataArray>
			</Polys>
		</Piece>
	</PolyData>
</VTKFile>
