<?xml version="1.0"?>
<VTKFile type="PolyData" version="0.1" byte_order="LittleEndian" compressor="vtkZLibDataCompressor">
	<PolyData>
		<Piece NumberOfPoints="195" NumberOfVerts="0" NumberOfLines="0" NumberOfStrips="0" NumberOfPolys="386">
		<PointData Normals="Normals">
		<DataArray type="Float32" Name="Normals" NumberOfComponents="3" format="ascii">
			 0.209666  0.762498  0.612076
			 0.432163  0.747514  0.504438
			 0.306960  0.951330 -0.027337
			 0.392647  0.610710  0.687649
			-0.151962  0.707853  0.689820
			 0.051627  0.543129  0.838061
			 0.300990  0.672042  0.676583
			 0.410118  0.904324 -0.118326
			 0.685572  0.568572  0.454661
			 0.433144  0.771041 -0.466779
			-0.189581  0.980226  0.056708
			 0.213366  0.678494 -0.702937
			 0.689894  0.586645 -0.424139
			-0.221463  0.300874  0.927593
			-0.354226  0.503532  0.788022
			 0.383663  0.206557  0.900076
			 0.493232  0.621497  0.608658
			 0.853273  0.486967 -0.186518
			 0.573084  0.602304 -0.555701
			 0.998386  0.045106 -0.034524
			 0.891137 -0.066212  0.448878
			-0.383648  0.912517 -0.141867
			-0.171650  0.734294 -0.656772
			-0.478855  0.799674  0.362241
			 0.413099  0.442738 -0.795822
			 0.028294  0.395648 -0.917966
			-0.005354  0.382354 -0.924000
			 0.598290  0.457664 -0.657717
			 0.055381  0.504189  0.861816
			 0.210868  0.282597  0.935775
			-0.194264  0.491920  0.848691
			-0.205106  0.352058  0.913229
			 0.231542 -0.036040  0.972157
			 0.152759 -0.154470  0.976117
			-0.223911  0.380814  0.897131
			 0.238859 -0.091122  0.966769
			-0.385638  0.517251  0.764025
			-0.444631  0.597839  0.667002
			 0.628896 -0.288926  0.721811
			 0.800943  0.419690 -0.427026
			 0.874125  0.125795 -0.469129
			 0.889471  0.344620 -0.300130
			 0.954681 -0.247650  0.165089
			 0.640947 -0.266419  0.719867
			 0.736014 -0.299187  0.607265
			-0.475429  0.755517 -0.450734
			-0.480429  0.876120 -0.040023
			-0.574920  0.817997  0.018622
			-0.096854  0.593472 -0.799006
			-0.521203  0.644751  0.559146
			-0.570627  0.799543  0.187392
			 0.417784  0.285484 -0.862528
			 0.387151  0.240376 -0.890131
			 0.015252  0.433217 -0.901161
			-0.193084  0.417782 -0.887793
			 0.085794  0.386199 -0.918417
			 0.259552  0.262145 -0.929469
			 0.026086  0.257164 -0.966016
			 0.467528  0.370695  0.802498
			 0.358663  0.317234  0.877908
			-0.260715  0.548416  0.794523
			 0.268098  0.580718  0.768694
			 0.318529  0.257674  0.912219
			 0.409916  0.094673  0.907197
			 0.374597  0.005753  0.927170
			-0.199880  0.559648  0.804265
			-0.189803  0.463276  0.865650
			-0.462580  0.450634  0.763510
			 0.298989  0.016599  0.954112
			 0.504737 -0.161113  0.848106
			 0.449068 -0.282077  0.847803
			-0.324634  0.423959  0.845501
			-0.238216  0.408864  0.880956
			-0.237429  0.405583  0.882683
			-0.757400  0.531021  0.379951
			 0.669056  0.102895 -0.736055
			 0.818594 -0.120698  0.561548
			 0.840443 -0.473486  0.263567
			 0.985778 -0.152935 -0.069659
			 0.991533 -0.129337  0.011584
			 0.930605 -0.249694 -0.267633
			 0.932412 -0.361396 -0.000526
			 0.980673 -0.195593 -0.004775
			 0.736068 -0.236749  0.634156
			-0.360753  0.718521 -0.594630
			-0.763037  0.448657 -0.465276
			-0.756484  0.634818 -0.157283
			-0.418471  0.591062 -0.689586
			 0.032439  0.439936 -0.897443
			-0.091554  0.311115 -0.945952
			-0.227111  0.230077 -0.946301
			-0.617216  0.400399 -0.677293
			-0.711291  0.409753 -0.571111
			 0.116154  0.455983 -0.882376
			-0.173229  0.467351 -0.866934
			 0.140532  0.324010 -0.935558
			 0.188746 -0.212111 -0.958845
			-0.068763  0.511311 -0.856640
			 0.182301  0.253470 -0.950010
			 0.091321  0.365978 -0.926132
			 0.292935  0.027426 -0.955739
			 0.196742 -0.152594 -0.968508
			 0.620054  0.311856  0.719916
			 0.376328  0.418340  0.826661
			 0.541596  0.247991  0.803227
			 0.759231 -0.021886  0.650453
			 0.414070  0.147887  0.898151
			 0.540299  0.169251  0.824276
			 0.216857  0.357017  0.908577
			 0.115752  0.122288  0.985722
			 0.149413  0.513381  0.845054
			-0.273524  0.209453  0.938783
			 0.415062  0.122725  0.901478
			 0.609193  0.026771  0.792570
			 0.439972 -0.098304  0.892615
			 0.626991 -0.136495  0.766975
			-0.244640  0.467808  0.849298
			-0.499110  0.529197  0.686178
			 0.397842 -0.106292 -0.911276
			 0.682388 -0.118161 -0.721377
			 0.942164 -0.195369 -0.272318
			 0.563091 -0.825964 -0.026692
			 0.704275 -0.706317 -0.071508
			 0.404753 -0.914203  0.020175
			 0.554499 -0.764232  0.329364
			 0.731591 -0.422490  0.535048
			 0.691561 -0.235903 -0.682711
			 0.666794 -0.454803 -0.590373
			 0.436874 -0.321063 -0.840273
			 0.692428 -0.652103 -0.308716
			-0.602315  0.447893 -0.660763
			-0.476876  0.631307 -0.611588
			-0.743547  0.532696 -0.404194
			-0.838797  0.512958 -0.182463
			-0.807517  0.508580  0.298769
			-0.244558  0.644626 -0.724327
			-0.314838  0.419206 -0.851553
			-0.107890 -0.726994 -0.678115
			 0.036992 -0.891001 -0.452491
			-0.033886 -0.075580 -0.996564
			-0.277112 -0.257232 -0.925765
			 0.343537 -0.612678 -0.711764
			 0.649524  0.018064  0.760126
			 0.769876 -0.217200  0.600096
			 0.090782 -0.381362  0.919957
			 0.636385 -0.253731  0.728447
			-0.369412 -0.248390  0.895454
			-0.384627 -0.191099  0.903074
			-0.385659 -0.228816  0.893818
			-0.317299 -0.054306  0.946769
			-0.325316  0.225473  0.918331
			-0.304021  0.348570  0.886606
			 0.222071 -0.950695 -0.216482
			 0.355848 -0.906909 -0.225584
			 0.492584 -0.836663 -0.239492
			 0.167129 -0.985734 -0.019885
			-0.014442 -0.994896 -0.099863
			 0.288006 -0.939084  0.187547
			 0.004947 -0.983703 -0.179732
			 0.428963 -0.645183  0.632242
			 0.079171 -0.788853  0.609461
			 0.105567 -0.934301  0.340496
			 0.495716 -0.449514  0.743104
			 0.689218 -0.305978  0.656777
			 0.307568 -0.892409 -0.330163
			-0.686522  0.654070 -0.317616
			-0.488861  0.712769 -0.502967
			-0.857123  0.333709 -0.392401
			-0.893957  0.243170 -0.376443
			-0.737132  0.591936 -0.325958
			-0.858904  0.350282 -0.373613
			-0.961213  0.193947 -0.196098
			-0.913507 -0.259970  0.312924
			-0.543593 -0.099663  0.833411
			-0.936505  0.054582  0.346381
			-0.397682  0.112174 -0.910640
			-0.724560  0.280955 -0.629347
			-0.770112 -0.451756 -0.450382
			-0.367419 -0.923282 -0.112043
			-0.711581 -0.199388 -0.673719
			-0.293077 -0.916463  0.272400
			-0.749886  0.011407 -0.661469
			-0.346136 -0.538262  0.768417
			-0.421700 -0.481315  0.768443
			-0.408371 -0.244136  0.879563
			-0.441687 -0.467870  0.765513
			-0.391712 -0.264708  0.881188
			-0.361494 -0.334355  0.870361
			-0.073632 -0.991403  0.108158
			-0.903592 -0.384703 -0.188482
			-0.843016 -0.537887 -0.000874
			-0.495516 -0.843917  0.205591
			-0.409661 -0.490754  0.768986
			-0.510243 -0.654651  0.557749
			-0.515920 -0.853403  0.074371
		</DataArray>
	</PointData>
	<Points>
		<DataArray type="Float32" NumberOfComponents="3" format="ascii">
			 0.116182  0.029907 -0.020370
			 0.117774  0.029294 -0.020560
			 0.116576  0.030257 -0.021445
			 0.117278  0.028789 -0.019692
			 0.111404  0.030005 -0.019916
			 0.115186  0.028430 -0.018816
			 0.117174  0.028269 -0.019248
			 0.117996  0.029828 -0.021795
			 0.119999  0.027976 -0.021164
			 0.117812  0.028555 -0.023372
			 0.108946  0.030176 -0.021589
			 0.117192  0.028435 -0.025833
			 0.118067  0.027533 -0.025540
			 0.103782  0.023276 -0.020470
			 0.100471  0.026261 -0.022650
			 0.118213  0.026704 -0.017899
			 0.118606  0.027414 -0.018803
			 0.120210  0.028498 -0.022304
			 0.118962  0.026649 -0.025185
			 0.120437  0.026782 -0.021899
			 0.120314  0.027078 -0.020978
			 0.100719  0.027667 -0.025502
			 0.101710  0.027494 -0.027315
			 0.101698  0.028308 -0.023470
			 0.117812  0.026056 -0.026907
			 0.115682  0.022369 -0.028427
			 0.116785  0.023992 -0.027840
			 0.118702  0.025211 -0.026630
			 0.111991  0.017450 -0.016091
			 0.112566  0.018684 -0.016705
			 0.099421  0.018484 -0.019683
			 0.098039  0.020029 -0.020638
			 0.114834  0.022066 -0.017793
			 0.115865  0.023181 -0.017738
			 0.098518  0.021229 -0.020973
			 0.117339  0.025596 -0.017675
			 0.098769  0.025094 -0.022638
			 0.099199  0.025843 -0.023119
			 0.117923  0.025284 -0.018167
			 0.119795  0.027007 -0.023763
			 0.119693  0.025419 -0.025704
			 0.120099  0.026504 -0.023886
			 0.116305  0.016197 -0.021279
			 0.117340  0.023095 -0.018557
			 0.117039  0.021032 -0.019095
			 0.098946  0.026623 -0.026150
			 0.100644  0.027627 -0.024747
			 0.098838  0.026671 -0.025364
			 0.101662  0.024895 -0.028569
			 0.099777  0.026812 -0.023543
			 0.100115  0.027409 -0.024095
			 0.118240  0.023646 -0.027878
			 0.117379  0.022319 -0.028502
			 0.116525  0.021203 -0.029059
			 0.099418  0.022973 -0.029749
			 0.102158  0.020258 -0.030542
			 0.101771  0.016012 -0.032149
			 0.110801  0.015563 -0.031246
			 0.112135  0.015218 -0.014979
			 0.112708  0.017652 -0.016401
			 0.109763  0.014959 -0.014429
			 0.111506  0.016183 -0.014994
			 0.113286  0.018883 -0.016960
			 0.114714  0.019887 -0.017731
			 0.114663  0.020957 -0.017819
			 0.097137  0.017587 -0.019470
			 0.097543  0.018816 -0.020260
			 0.096265  0.019709 -0.020869
			 0.115159  0.020726 -0.017955
			 0.116099  0.021145 -0.018254
			 0.117118  0.023624 -0.018304
			 0.098308  0.023831 -0.022198
			 0.098047  0.022683 -0.021746
			 0.097614  0.021534 -0.021321
			 0.097746  0.024768 -0.023083
			 0.117059  0.020087 -0.029387
			 0.115562  0.015965 -0.018877
			 0.113487  0.005429 -0.020870
			 0.116202  0.013364 -0.028220
			 0.115981  0.011339 -0.027925
			 0.115688  0.009277 -0.028641
			 0.115366  0.007157 -0.026472
			 0.116551  0.014972 -0.028411
			 0.116515  0.020194 -0.018934
			 0.098905  0.025981 -0.026957
			 0.098005  0.024746 -0.027335
			 0.098384  0.026271 -0.025993
			 0.098946  0.025307 -0.027739
			 0.116123  0.020283 -0.029543
			 0.100362  0.020587 -0.030575
			 0.099352  0.021092 -0.030346
			 0.098676  0.022728 -0.029319
			 0.097667  0.018933 -0.030230
			 0.100699  0.018619 -0.031522
			 0.099909  0.018914 -0.031238
			 0.099878  0.015982 -0.033043
			 0.098892  0.011008 -0.033196
			 0.100312  0.017253 -0.032299
			 0.115623  0.018567 -0.030274
			 0.115841  0.019388 -0.029972
			 0.115388  0.017537 -0.030541
			 0.114075  0.015331 -0.030538
			 0.111672  0.015130 -0.014459
			 0.112690  0.016468 -0.015838
			 0.112748  0.015268 -0.015209
			 0.112670  0.012999 -0.014736
			 0.113743  0.018912 -0.017171
			 0.114335  0.017620 -0.017247
			 0.110812  0.013463 -0.013220
			 0.110528  0.011951 -0.012662
			 0.111076  0.014894 -0.013920
			 0.100447  0.014315 -0.016874
			 0.114238  0.018850 -0.017381
			 0.114796  0.018656 -0.017624
			 0.115664  0.020391 -0.018108
			 0.115857  0.019036 -0.018639
			 0.096780  0.016348 -0.018663
			 0.094682  0.016918 -0.019803
			 0.115645  0.015575 -0.030292
			 0.116378  0.015355 -0.029846
			 0.116651  0.015297 -0.029413
			 0.113259  0.004745 -0.023751
			 0.114712  0.006018 -0.026078
			 0.112698  0.004403 -0.022187
			 0.111696  0.004331 -0.019253
			 0.111126  0.005975 -0.015579
			 0.115921  0.013428 -0.029718
			 0.115044  0.007709 -0.028430
			 0.114931  0.009428 -0.029426
			 0.114683  0.006412 -0.027547
			 0.098429  0.023960 -0.028305
			 0.097285  0.015836 -0.032273
			 0.096505  0.015764 -0.031354
			 0.091098  0.010981 -0.024397
			 0.093368  0.014661 -0.019205
			 0.098796  0.015952 -0.032786
			 0.096145  0.013907 -0.033870
			 0.096812  0.007972 -0.031586
			 0.108535  0.006052 -0.029179
			 0.095752  0.012352 -0.033893
			 0.094990  0.011229 -0.033640
			 0.114078  0.006382 -0.028190
			 0.111141  0.012288 -0.013097
			 0.111131  0.010640 -0.013545
			 0.109452  0.008286 -0.013034
			 0.110681  0.008818 -0.013660
			 0.097759  0.009520 -0.017416
			 0.096032  0.009847 -0.018042
			 0.095078  0.010223 -0.018392
			 0.095239  0.012071 -0.018190
			 0.095357  0.013865 -0.018166
			 0.096574  0.014967 -0.018180
			 0.112533  0.004535 -0.024182
			 0.113761  0.005269 -0.025458
			 0.114135  0.005762 -0.026503
			 0.111390  0.003920 -0.020771
			 0.109894  0.003869 -0.021335
			 0.110934  0.003909 -0.019283
			 0.110654  0.004078 -0.023254
			 0.110531  0.005577 -0.015378
			 0.109872  0.005102 -0.015495
			 0.110366  0.004413 -0.017462
			 0.110252  0.007112 -0.014120
			 0.110836  0.007332 -0.014517
			 0.113601  0.005643 -0.027056
			 0.095953  0.014795 -0.031948
			 0.096712  0.014866 -0.033117
			 0.092401  0.010271 -0.030409
			 0.091470  0.009535 -0.028925
			 0.095389  0.013939 -0.032652
			 0.093058  0.010782 -0.031356
			 0.091066  0.009436 -0.027704
			 0.090507  0.009519 -0.021602
			 0.091505  0.012111 -0.019330
			 0.090971  0.010777 -0.020231
			 0.095433  0.012786 -0.033819
			 0.094400  0.011855 -0.033330
			 0.091539  0.008184 -0.029184
			 0.093340  0.006573 -0.026938
			 0.093550  0.009907 -0.032365
			 0.095977  0.006567 -0.020186
			 0.093853  0.011021 -0.032825
			 0.097690  0.007817 -0.018400
			 0.095973  0.008142 -0.019019
			 0.094235  0.010603 -0.018693
			 0.092432  0.009684 -0.020175
			 0.093378  0.010986 -0.018969
			 0.092542  0.011376 -0.019214
			 0.109463  0.003864 -0.019626
			 0.090861  0.008535 -0.027291
			 0.090660  0.008292 -0.025305
			 0.092647  0.007329 -0.023122
			 0.091462  0.010285 -0.020273
			 0.092402  0.008096 -0.021331
			 0.092007  0.007295 -0.025133
		</DataArray>
	</Points>
			<Polys>
				<DataArray type="Int32" Name="connectivity" format="ascii">
					0 1 2 
					3 1 0 
					2 4 0 
					5 6 0 
					6 3 0 
					5 0 4 
					7 2 1 
					3 8 1 
					7 1 8 
					7 9 2 
					2 10 4 
					11 2 12 
					2 9 12 
					10 2 11 
					6 8 3 
					5 4 13 
					13 4 14 
					4 10 14 
					15 5 13 
					15 16 5 
					16 6 5 
					16 8 6 
					7 8 17 
					18 7 17 
					7 18 9 
					8 19 17 
					20 8 16 
					19 8 20 
					12 9 18 
					21 10 22 
					10 11 22 
					10 23 14 
					10 21 23 
					12 24 11 
					11 25 22 
					25 11 26 
					24 26 11 
					18 27 12 
					27 24 12 
					13 28 29 
					30 28 13 
					13 31 30 
					32 33 13 
					14 34 13 
					33 35 13 
					35 15 13 
					32 13 29 
					13 34 31 
					34 14 36 
					14 23 37 
					37 36 14 
					38 20 15 
					38 15 35 
					15 20 16 
					39 17 19 
					18 17 39 
					39 40 18 
					27 18 40 
					19 41 39 
					41 19 40 
					19 42 40 
					19 20 42 
					43 20 38 
					20 43 44 
					20 44 42 
					45 21 22 
					23 21 46 
					46 21 47 
					47 21 45 
					48 45 22 
					25 48 22 
					23 49 37 
					23 50 49 
					23 46 50 
					27 51 24 
					26 24 51 
					52 25 51 
					53 25 52 
					54 48 25 
					55 54 25 
					25 56 55 
					57 56 25 
					53 57 25 
					26 51 25 
					51 27 40 
					58 59 28 
					60 61 28 
					28 30 60 
					28 61 58 
					29 28 59 
					62 63 29 
					63 64 29 
					64 32 29 
					29 59 62 
					30 65 60 
					66 30 31 
					30 66 65 
					67 31 34 
					67 66 31 
					68 69 32 
					32 70 33 
					70 32 69 
					32 64 68 
					70 35 33 
					71 72 34 
					34 36 71 
					72 73 34 
					34 73 67 
					70 38 35 
					74 36 37 
					71 36 74 
					37 49 74 
					38 70 43 
					41 40 39 
					52 51 40 
					40 75 52 
					75 40 42 
					76 77 42 
					78 42 79 
					42 80 79 
					42 81 80 
					82 75 42 
					78 82 42 
					77 81 42 
					83 76 42 
					44 83 42 
					69 43 70 
					43 69 44 
					69 83 44 
					84 45 48 
					85 86 45 
					45 84 85 
					47 45 86 
					50 46 47 
					74 50 47 
					86 74 47 
					54 87 48 
					87 84 48 
					50 74 49 
					52 75 53 
					53 88 57 
					88 53 75 
					54 55 89 
					54 89 90 
					87 54 91 
					92 91 54 
					54 90 92 
					93 94 55 
					94 89 55 
					56 93 55 
					95 56 96 
					95 97 56 
					97 93 56 
					57 96 56 
					98 57 99 
					98 100 57 
					96 57 101 
					88 99 57 
					101 57 100 
					61 102 58 
					103 59 58 
					103 58 104 
					102 105 58 
					105 104 58 
					59 106 62 
					59 103 107 
					106 59 107 
					108 60 109 
					110 60 108 
					111 109 60 
					65 111 60 
					60 110 61 
					61 110 102 
					106 63 62 
					63 106 112 
					113 63 112 
					64 63 68 
					63 114 68 
					63 113 115 
					114 63 115 
					65 116 111 
					117 116 65 
					117 65 66 
					67 117 66 
					72 67 73 
					74 67 71 
					67 72 71 
					67 74 92 
					117 67 92 
					114 69 68 
					115 83 69 
					69 114 115 
					92 74 85 
					74 86 85 
					98 99 75 
					100 98 75 
					118 100 75 
					118 75 119 
					75 120 119 
					99 88 75 
					120 75 82 
					76 104 105 
					107 104 76 
					113 107 76 
					113 76 115 
					76 83 115 
					105 77 76 
					121 122 77 
					122 81 77 
					123 121 77 
					124 123 77 
					125 124 77 
					105 125 77 
					82 78 126 
					80 126 78 
					80 78 79 
					127 128 80 
					80 128 126 
					80 81 129 
					80 129 127 
					122 129 81 
					126 120 82 
					84 87 85 
					130 91 85 
					85 87 130 
					92 85 91 
					87 91 130 
					90 89 92 
					94 92 89 
					92 94 97 
					131 92 97 
					92 131 132 
					133 92 132 
					92 134 117 
					92 133 134 
					94 93 97 
					135 95 136 
					96 136 95 
					95 135 97 
					126 128 96 
					126 96 101 
					137 96 138 
					139 136 96 
					140 139 96 
					138 96 141 
					96 128 141 
					140 96 137 
					135 131 97 
					101 100 118 
					101 118 126 
					110 108 102 
					108 142 102 
					102 142 105 
					103 104 107 
					143 125 105 
					143 105 142 
					106 107 112 
					107 113 112 
					108 109 142 
					109 111 144 
					145 142 109 
					109 144 145 
					146 144 111 
					147 146 111 
					148 147 111 
					148 111 149 
					111 150 149 
					116 151 111 
					150 111 151 
					116 117 151 
					151 117 150 
					134 150 117 
					126 118 119 
					120 126 119 
					152 153 121 
					122 121 153 
					123 152 121 
					129 122 154 
					122 153 154 
					155 156 123 
					123 124 157 
					123 158 152 
					158 123 156 
					157 155 123 
					124 159 160 
					161 157 124 
					160 161 124 
					125 159 124 
					162 159 125 
					125 163 162 
					163 125 143 
					127 129 141 
					141 128 127 
					164 141 129 
					164 129 154 
					165 132 131 
					131 166 165 
					131 135 166 
					133 132 165 
					167 168 133 
					169 133 165 
					133 169 170 
					133 170 167 
					133 168 171 
					133 171 172 
					134 133 172 
					150 134 149 
					173 149 134 
					172 174 134 
					174 173 134 
					135 136 166 
					136 139 175 
					166 136 169 
					136 176 169 
					176 136 175 
					177 137 178 
					137 138 178 
					179 140 137 
					177 179 137 
					164 138 141 
					152 138 153 
					178 138 180 
					153 138 164 
					158 138 152 
					138 158 180 
					139 140 175 
					175 140 176 
					181 140 179 
					181 176 140 
					143 142 145 
					145 163 143 
					182 160 144 
					144 146 182 
					144 160 159 
					144 159 162 
					163 145 144 
					163 144 162 
					146 147 183 
					146 183 182 
					147 148 183 
					148 184 185 
					148 185 183 
					184 148 149 
					186 184 149 
					187 186 149 
					173 187 149 
					153 164 154 
					188 156 155 
					157 188 155 
					180 156 188 
					158 156 180 
					188 157 161 
					160 180 161 
					180 160 182 
					180 188 161 
					166 169 165 
					167 170 179 
					179 168 167 
					171 168 177 
					179 177 168 
					170 169 176 
					181 179 170 
					176 181 170 
					177 189 171 
					172 171 190 
					189 190 171 
					191 172 190 
					192 174 172 
					193 172 191 
					172 193 185 
					172 185 192 
					187 173 192 
					173 174 192 
					177 178 189 
					178 194 190 
					178 180 191 
					194 178 191 
					178 190 189 
					182 183 180 
					193 191 180 
					193 180 183 
					183 185 193 
					184 186 185 
					192 185 187 
					186 187 185 
					190 194 191 
				</DataArray>
				<DataArray type="Int32" Name="offsets" format="ascii">
					3 6 9 12 15 18 21 24 27 30 33 36 39 42 45 48 51 54 57 60 63 66 69 72 75 78 81 84 87 90 93 96 99 102 105 108 111 114 117 120 123 126 129 132 135 138 141 144 147 150 153 156 159 162 165 168 171 174 177 180 183 186 189 192 195 198 201 204 207 210 213 216 219 222 225 228 231 234 237 240 243 246 249 252 255 258 261 264 267 270 273 276 279 282 285 288 291 294 297 300 303 306 309 312 315 318 321 324 327 330 333 336 339 342 345 348 351 354 357 360 363 366 369 372 375 378 381 384 387 390 393 396 399 402 405 408 411 414 417 420 423 426 429 432 435 438 441 444 447 450 453 456 459 462 465 468 471 474 477 480 483 486 489 492 495 498 501 504 507 510 513 516 519 522 525 528 531 534 537 540 543 546 549 552 555 558 561 564 567 570 573 576 579 582 585 588 591 594 597 600 603 606 609 612 615 618 621 624 627 630 633 636 639 642 645 648 651 654 657 660 663 666 669 672 675 678 681 684 687 690 693 696 699 702 705 708 711 714 717 720 723 726 729 732 735 738 741 744 747 750 753 756 759 762 765 768 771 774 777 780 783 786 789 792 795 798 801 804 807 810 813 816 819 822 825 828 831 834 837 840 843 846 849 852 855 858 861 864 867 870 873 876 879 882 885 888 891 894 897 900 903 906 909 912 915 918 921 924 927 930 933 936 939 942 945 948 951 954 957 960 963 966 969 972 975 978 981 984 987 990 993 996 999 1002 1005 1008 1011 1014 1017 1020 1023 1026 1029 1032 1035 1038 1041 1044 1047 1050 1053 1056 1059 1062 1065 1068 1071 1074 1077 1080 1083 1086 1089 1092 1095 1098 1101 1104 1107 1110 1113 1116 1119 1122 1125 1128 1131 1134 1137 1140 1143 1146 1149 1152 1155 1158 
				</DataArray>
			</Polys>
		</Piece>
	</PolyData>
</VTKFile>
