<?xml version="1.0"?>
<VTKFile type="PolyData" version="0.1" byte_order="LittleEndian" compressor="vtkZLibDataCompressor">
	<PolyData>
		<Piece NumberOfPoints="203" NumberOfVerts="0" NumberOfLines="0" NumberOfStrips="0" NumberOfPolys="398">
		<PointData Normals="Normals">
		<DataArray type="Float32" Name="Normals" NumberOfComponents="3" format="ascii">
			 0.718182  0.590521 -0.368103
			 0.702253  0.213481  0.679166
			 0.813867 -0.528717 -0.240995
			 0.754652  0.436562 -0.489809
			 0.513641  0.847448 -0.134181
			 0.240188  0.811704  0.532397
			 0.299966 -0.164082  0.939733
			 0.206905 -0.916442  0.342525
			 0.539974 -0.821634 -0.182608
			 0.514287  0.805148 -0.295372
			 0.874300  0.361898 -0.323464
			 0.791777 -0.559261 -0.245593
			 0.098397  0.963654  0.248374
			-0.018936  0.257816  0.966008
			 0.122100 -0.683245  0.719908
			-0.063921 -0.913777  0.401155
			 0.007063 -0.999497  0.030926
			 0.018688 -0.997306  0.070929
			 0.104930  0.991988  0.070356
			 0.590286  0.779974 -0.207854
			 0.996107 -0.084482 -0.025193
			 0.488081 -0.867920  0.092149
			 0.066494 -0.987499  0.142911
			-0.280393  0.688697  0.668638
			-0.348097 -0.344997  0.871668
			-0.192162 -0.978045 -0.080636
			-0.447061 -0.851844  0.272943
			-0.646193 -0.254893  0.719350
			-0.381732 -0.919563  0.093187
			-0.449940 -0.858513  0.245987
			-0.535607  0.769971  0.346798
			-0.518024  0.561865  0.644949
			 0.227286  0.971642 -0.065218
			 0.624188  0.769406 -0.135659
			 0.994069 -0.037796  0.101976
			 0.414593 -0.883757  0.216993
			 0.118375 -0.968485  0.219145
			-0.247507 -0.913326  0.323381
			-0.742375 -0.652644 -0.151442
			-0.798298 -0.553935 -0.236383
			-0.976785 -0.097199  0.190900
			-0.862695 -0.503662 -0.045634
			-0.932673 -0.341712  0.115562
			-0.545470  0.834938 -0.073084
			 0.320119  0.944170 -0.077888
			 0.709168  0.703670  0.043918
			 0.906623 -0.035764  0.420424
			 0.133733 -0.913765  0.383601
			 0.070025 -0.966314  0.247656
			-0.730658 -0.673906 -0.109493
			 0.039480 -0.956205  0.290022
			-0.961447  0.183972 -0.204387
			-0.935957  0.110753 -0.334242
			-0.948563  0.190062 -0.253190
			-0.864273  0.238944 -0.442648
			-0.534363  0.801793 -0.267553
			 0.344491  0.937938 -0.039983
			 0.733272  0.642857  0.221466
			 0.857445  0.163385  0.487948
			 0.412257 -0.709611  0.571399
			-0.251471 -0.943737  0.214760
			-0.266389 -0.895205  0.357275
			-0.345397 -0.916393 -0.202299
			-0.058262 -0.981261  0.183665
			-0.698491  0.084329 -0.710633
			-0.520538  0.764389 -0.380460
			-0.400909  0.807360 -0.432945
			-0.293040  0.798231 -0.526265
			 0.302755  0.941423 -0.148531
			 0.739180  0.564705  0.367044
			 0.711338  0.649339  0.268993
			 0.786262  0.484513  0.383456
			 0.851395  0.039686  0.523022
			 0.591734 -0.520204  0.615824
			-0.325151 -0.887443  0.326682
			-0.271592 -0.954242  0.125144
			-0.488256 -0.869045  0.079795
			-0.704733  0.149201 -0.693607
			-0.563556 -0.765021 -0.311687
			-0.225867  0.792317 -0.566760
			 0.343493  0.932697 -0.109947
			 0.392051  0.916390 -0.080778
			 0.799875  0.501296  0.330005
			 0.784697  0.497837  0.369335
			 0.713974  0.663684  0.223080
			 0.838485  0.300211  0.454771
			 0.689054 -0.370976  0.622560
			-0.229396 -0.937528  0.261568
			-0.684048 -0.721435 -0.107746
			-0.647708 -0.671423 -0.360090
			-0.437528 -0.899110 -0.013081
			-0.215328  0.783866 -0.582398
			-0.706704  0.136975 -0.694124
			 0.425556  0.893994 -0.140272
			 0.717059  0.662618  0.216250
			 0.849126  0.160695  0.503152
			-0.107820 -0.943272  0.314027
			 0.636051 -0.477979  0.605785
			-0.642369 -0.758525 -0.109556
			-0.734437  0.205860 -0.646703
			-0.758436 -0.566561 -0.322155
			 0.443849  0.892045 -0.085174
			-0.145904  0.891999 -0.427844
			 0.712514  0.674625  0.192886
			 0.704593 -0.479996  0.522640
			 0.900099  0.256776  0.351977
			-0.673745 -0.738776 -0.016646
			-0.112654 -0.948164  0.297143
			-0.859214 -0.460021 -0.223902
			-0.804631  0.282488 -0.522274
			 0.667727  0.723441  0.175421
			 0.441478  0.897086 -0.018275
			-0.055306  0.953781 -0.295371
			-0.056504 -0.950785  0.304657
			 0.793844 -0.438052  0.421809
			 0.840564  0.517063  0.161548
			 0.855727  0.470731  0.214811
			 0.938723  0.146729  0.311881
			-0.907059 -0.384938 -0.170492
			-0.693049 -0.719016  0.051962
			-0.855498  0.318181 -0.408515
			-0.205781  0.932008 -0.298356
			 0.560817  0.826711  0.045089
			-0.609363 -0.786860  0.097613
			 0.161378 -0.928336  0.334887
			 0.830428 -0.445404  0.334671
			 0.960890  0.077879  0.265756
			 0.858361  0.473936  0.196473
			 0.567193  0.819498  0.081949
			-0.897061  0.365340 -0.248613
			-0.930910 -0.360501 -0.058697
			-0.210585  0.956822 -0.200363
			-0.691252 -0.716139  0.096519
			-0.002557 -0.962887  0.269892
			 0.817765 -0.522574  0.241201
			 0.985396  0.021040  0.168976
			 0.810604  0.585559  0.006505
			 0.491840  0.870413  0.021764
			-0.927364  0.370849 -0.049663
			-0.256124  0.963426 -0.078801
			-0.961252 -0.265982  0.072443
			-0.672129 -0.720377  0.171173
			 0.120840 -0.964898  0.233174
			 0.838948 -0.515273  0.175099
			 0.995414  0.028872  0.091197
			 0.538169  0.816625 -0.208562
			 0.679391  0.731977 -0.051369
			 0.602241  0.790321 -0.112691
			 0.982348  0.184543  0.030585
			-0.212775  0.965849 -0.147858
			-0.932852  0.335070  0.132347
			-0.943732 -0.271733  0.188499
			-0.649976 -0.750860  0.117216
			 0.253173 -0.949645  0.184600
			 0.869508 -0.473583  0.140264
			 0.990869  0.131829 -0.028268
			 0.797246  0.601684  0.048732
			-0.147437  0.969164  0.197444
			 0.618979  0.777975  0.107799
			 0.901347 -0.432358 -0.025303
			-0.900332  0.315114  0.300174
			-0.867625 -0.390532  0.307753
			-0.621007 -0.672918  0.401909
			-0.470000 -0.849779  0.238695
			 0.216324 -0.975087  0.049084
			 0.930837 -0.313781 -0.187306
			 0.973947  0.090175 -0.208077
			 0.866038  0.499979  0.000573
			-0.181447  0.951154  0.249767
			 0.562901  0.801596  0.201461
			 0.386518 -0.918910 -0.078792
			-0.846087  0.306362  0.436210
			-0.536978 -0.654004  0.532854
			-0.864593 -0.138797  0.482922
			-0.450542 -0.708478  0.543204
			-0.173513 -0.974859  0.139796
			 0.284098 -0.728905 -0.622885
			 0.824326 -0.203559 -0.528252
			 0.288027 -0.101297 -0.952250
			 0.941451  0.107454 -0.319567
			 0.816958  0.574694 -0.048030
			-0.385506  0.840416  0.380901
			 0.581999  0.811235  0.056342
			 0.009177  0.976773 -0.214081
			-0.012806 -0.801769 -0.597496
			-0.852897  0.330997  0.403741
			-0.763968 -0.544639  0.346007
			-0.345433 -0.926326  0.150321
			-0.907626  0.013746  0.419554
			-0.005680  0.055130 -0.998463
			 0.520521  0.335513 -0.785168
			 0.094186 -0.218923 -0.971186
			 0.347346  0.693976 -0.630673
			-0.624592  0.697392 -0.351467
			-0.102110  0.361171 -0.926892
			-0.050527 -0.806479 -0.589100
			-0.962287  0.231019 -0.143644
			-0.425936 -0.478927 -0.767599
			-0.022214  0.180662 -0.983294
			 0.129051 -0.243594 -0.961253
			 0.552497 -0.699160  0.453788
			 0.552497 -0.699160  0.453788
			 0.552497 -0.699160  0.453788
		</DataArray>
	</PointData>
	<Points>
		<DataArray type="Float32" NumberOfComponents="3" format="ascii">
			-0.009136  0.026513  0.138215
			-0.008183  0.025616  0.145537
			-0.007962  0.022565  0.138310
			-0.011485  0.024333  0.133214
			-0.011904  0.029318  0.139564
			-0.017636  0.030693  0.145793
			-0.013881  0.026770  0.147392
			-0.012029  0.022059  0.142037
			-0.011747  0.022037  0.132250
			-0.015649  0.029660  0.134673
			-0.013150  0.023354  0.129701
			-0.013422  0.021496  0.127111
			-0.020089  0.032015  0.142785
			-0.018614  0.027851  0.148418
			-0.016567  0.023288  0.145665
			-0.019917  0.021988  0.143699
			-0.016100  0.021021  0.133172
			-0.017997  0.020976  0.128156
			-0.023378  0.032843  0.136857
			-0.017830  0.029098  0.129180
			-0.013345  0.022602  0.124607
			-0.014912  0.021250  0.121695
			-0.018940  0.020395  0.121601
			-0.022720  0.030155  0.146492
			-0.022405  0.024872  0.147168
			-0.022987  0.022009  0.134058
			-0.028553  0.021486  0.141408
			-0.029947  0.023267  0.141895
			-0.024018  0.021966  0.128693
			-0.025505  0.020811  0.121876
			-0.031454  0.032329  0.137008
			-0.028445  0.031278  0.141359
			-0.025202  0.033012  0.130279
			-0.019638  0.028975  0.123684
			-0.013449  0.022070  0.120270
			-0.014278  0.020684  0.118275
			-0.018812  0.019368  0.117132
			-0.026906  0.018983  0.114402
			-0.032688  0.023762  0.134829
			-0.032835  0.027227  0.127486
			-0.033987  0.026353  0.136230
			-0.029955  0.026368  0.122459
			-0.028715  0.021263  0.114209
			-0.031947  0.032687  0.130115
			-0.023891  0.031842  0.123198
			-0.019065  0.027399  0.117318
			-0.012358  0.020209  0.115342
			-0.014009  0.019685  0.114858
			-0.018603  0.018256  0.112173
			-0.028108  0.016864  0.108828
			-0.023009  0.017415  0.110465
			-0.032856  0.030644  0.128989
			-0.030850  0.029039  0.122373
			-0.028981  0.026354  0.113840
			-0.028302  0.023807  0.107909
			-0.030222  0.031760  0.123334
			-0.022763  0.031576  0.116718
			-0.016457  0.026622  0.111963
			-0.010258  0.018673  0.110028
			-0.010248  0.017036  0.109004
			-0.014757  0.016719  0.106141
			-0.012166  0.016007  0.108035
			-0.020465  0.015768  0.101621
			-0.017156  0.016965  0.104362
			-0.021701  0.021387  0.100463
			-0.026950  0.030384  0.114324
			-0.024937  0.028484  0.108789
			-0.019120  0.026140  0.100676
			-0.019606  0.029281  0.109910
			-0.011255  0.021569  0.107549
			-0.011869  0.024001  0.105993
			-0.008946  0.019461  0.107550
			-0.006546  0.016813  0.104026
			-0.007081  0.014303  0.103821
			-0.009602  0.012749  0.102835
			-0.014502  0.015107  0.097907
			-0.011460  0.014453  0.100395
			-0.017164  0.019859  0.095599
			-0.016531  0.015192  0.095967
			-0.014489  0.024821  0.096569
			-0.014250  0.026434  0.102825
			-0.011267  0.024612  0.098231
			-0.006791  0.018189  0.103233
			-0.007122  0.019059  0.102772
			-0.008207  0.022028  0.100785
			-0.002517  0.014808  0.098105
			-0.002327  0.013309  0.097348
			-0.005829  0.008460  0.095949
			-0.007371  0.011682  0.094612
			-0.011860  0.013986  0.091074
			-0.009687  0.013041  0.092662
			-0.010175  0.022451  0.092058
			-0.012491  0.018650  0.090696
			-0.007598  0.022486  0.093560
			-0.004813  0.019993  0.095782
			 0.002065  0.012338  0.091589
			-0.001158  0.006811  0.090355
			 0.002040  0.010004  0.091194
			-0.003952  0.010039  0.087745
			-0.007449  0.015643  0.084620
			-0.007278  0.012559  0.085416
			-0.003466  0.019077  0.087380
			-0.005132  0.019442  0.085971
			-0.000179  0.016590  0.089951
			 0.006389  0.006988  0.083951
			 0.006278  0.010184  0.084698
			-0.000603  0.007148  0.081589
			 0.002408  0.004310  0.083136
			-0.003614  0.009542  0.079340
			-0.003418  0.013792  0.078154
			 0.004307  0.014353  0.083378
			 0.001302  0.016596  0.081677
			-0.001281  0.017452  0.079241
			 0.005520  0.001896  0.074778
			 0.010136  0.004469  0.075208
			 0.006875  0.012726  0.079207
			 0.008112  0.010905  0.075329
			 0.009529  0.006765  0.076531
			-0.000411  0.006906  0.071046
			 0.002971  0.003610  0.073512
			-0.000033  0.011153  0.070669
			 0.003657  0.014954  0.069684
			 0.006556  0.013815  0.070409
			 0.004019  0.001188  0.066334
			 0.008123 -0.000370  0.067861
			 0.012545  0.002802  0.067646
			 0.012994  0.005524  0.067790
			 0.011438  0.009793  0.067317
			 0.008747  0.013098  0.066017
			 0.002154  0.009386  0.063073
			 0.002008  0.004044  0.063154
			 0.005938  0.014156  0.064800
			 0.004788  0.000500  0.062183
			 0.009628 -0.002288  0.061981
			 0.013088  0.000216  0.060657
			 0.014755  0.004253  0.059522
			 0.013925  0.008768  0.056552
			 0.009908  0.012336  0.056249
			 0.003132  0.008489  0.055375
			 0.007283  0.013384  0.055855
			 0.002590  0.002170  0.055544
			 0.004856 -0.001540  0.054761
			 0.010020 -0.004005  0.055349
			 0.014175 -0.000753  0.054796
			 0.015186  0.005329  0.053978
			 0.010173  0.012388  0.053699
			 0.013565  0.008412  0.046437
			 0.009396  0.010066  0.050052
			 0.015748  0.005231  0.046846
			 0.006808  0.013010  0.051677
			 0.002387  0.007314  0.049474
			 0.002099  0.001486  0.047793
			 0.004706 -0.003392  0.046226
			 0.010373 -0.005392  0.047871
			 0.014892 -0.001848  0.047858
			 0.016201  0.003326  0.040512
			 0.013587  0.008196  0.039743
			 0.006233  0.013014  0.046908
			 0.010014  0.012549  0.039657
			 0.015235 -0.002797  0.041080
			 0.000991  0.007278  0.044815
			 0.000372  0.002320  0.042664
			 0.003132 -0.000650  0.037189
			 0.004804 -0.004742  0.035849
			 0.011265 -0.006655  0.039952
			 0.014143 -0.001880  0.033731
			 0.016269  0.002327  0.033947
			 0.014344  0.008089  0.033424
			 0.005456  0.014660  0.040015
			 0.010686  0.011937  0.033660
			 0.011513 -0.005633  0.034725
			-0.001339  0.008023  0.038038
			-0.001104 -0.000615  0.035368
			-0.002645  0.002765  0.035820
			 0.001578 -0.003783  0.033797
			 0.004956 -0.006045  0.032251
			 0.012837 -0.003615  0.026139
			 0.013920 -0.000569  0.024499
			 0.012813  0.004785  0.024600
			 0.014649  0.005864  0.031775
			 0.012499  0.011349  0.030049
			 0.002400  0.016035  0.034816
			 0.009166  0.015073  0.030270
			 0.002760  0.017664  0.030209
			 0.008085 -0.005172  0.028566
			-0.003900  0.009558  0.032649
			-0.005948 -0.002164  0.028397
			-0.000340 -0.004996  0.030108
			-0.006449  0.004193  0.029819
			 0.006307  0.006913  0.025464
			 0.012799  0.009585  0.025149
			 0.007131  0.002171  0.025844
			 0.009002  0.013484  0.026162
			-0.003956  0.011885  0.028323
			 0.004379  0.011733  0.026173
			 0.000377 -0.004592  0.027025
			-0.007874  0.004917  0.025166
			-0.007315 -0.002053  0.024951
			-0.000998  0.007305  0.024281
			-0.000138  0.000034  0.024630
			 0.001918  0.004125  0.063644
			-0.000597  0.007218  0.071471
			-0.000599  0.006761  0.070771
		</DataArray>
	</Points>
			<Polys>
				<DataArray type="Int32" Name="connectivity" format="ascii">
					0 1 2 
					3 0 2 
					0 4 1 
					0 2 1 
					3 4 0 
					5 6 1 
					7 1 6 
					2 1 7 
					5 1 4 
					8 2 7 
					3 2 8 
					3 9 4 
					9 3 10 
					11 10 3 
					11 3 8 
					4 9 12 
					4 12 5 
					13 5 12 
					5 13 6 
					14 6 13 
					7 6 14 
					7 14 15 
					8 7 16 
					7 15 16 
					8 16 17 
					8 17 11 
					12 9 18 
					19 18 9 
					9 10 19 
					19 10 20 
					21 20 10 
					21 10 11 
					11 17 22 
					11 22 21 
					23 12 18 
					13 12 23 
					23 24 13 
					24 14 13 
					24 15 14 
					15 25 16 
					15 26 25 
					27 26 15 
					27 15 24 
					28 17 16 
					28 16 25 
					29 22 17 
					29 17 28 
					30 31 18 
					19 32 18 
					23 18 31 
					32 30 18 
					33 32 19 
					19 20 33 
					33 20 34 
					20 21 35 
					20 35 34 
					21 22 36 
					21 36 35 
					37 36 22 
					37 22 29 
					31 24 23 
					31 27 24 
					38 25 26 
					39 28 25 
					39 25 38 
					40 38 26 
					40 26 27 
					30 40 27 
					30 27 31 
					41 29 28 
					41 28 39 
					42 37 29 
					42 29 41 
					32 43 30 
					43 40 30 
					33 44 32 
					44 43 32 
					45 44 33 
					33 34 45 
					45 34 46 
					47 46 34 
					47 34 35 
					35 36 48 
					35 48 47 
					48 36 37 
					42 49 37 
					50 37 49 
					48 37 50 
					51 39 38 
					51 38 40 
					52 41 39 
					52 39 51 
					43 51 40 
					53 42 41 
					53 41 52 
					54 49 42 
					54 42 53 
					44 55 43 
					55 51 43 
					45 56 44 
					56 55 44 
					57 56 45 
					45 46 57 
					57 46 58 
					59 58 46 
					59 46 47 
					47 48 60 
					61 59 47 
					47 60 61 
					62 63 48 
					60 48 63 
					62 48 50 
					50 49 62 
					64 62 49 
					64 49 54 
					55 52 51 
					65 53 52 
					65 52 55 
					66 54 53 
					66 53 65 
					67 64 54 
					67 54 66 
					56 65 55 
					57 68 56 
					68 65 56 
					69 70 57 
					70 68 57 
					57 58 69 
					71 69 58 
					71 58 72 
					73 72 58 
					73 58 59 
					74 73 59 
					74 59 61 
					75 76 60 
					75 60 63 
					76 61 60 
					76 74 61 
					62 64 77 
					78 63 62 
					62 77 78 
					78 75 63 
					79 77 64 
					79 64 67 
					68 66 65 
					80 67 66 
					80 66 68 
					81 79 67 
					81 67 80 
					70 80 68 
					82 83 69 
					82 69 71 
					83 70 69 
					83 84 70 
					84 80 70 
					71 72 82 
					82 72 85 
					86 85 72 
					86 72 73 
					87 86 73 
					87 73 74 
					88 87 74 
					88 74 76 
					89 90 75 
					89 75 78 
					90 76 75 
					90 88 76 
					91 92 77 
					92 78 77 
					91 77 79 
					92 89 78 
					93 91 79 
					93 79 81 
					84 81 80 
					94 93 81 
					94 81 84 
					82 85 83 
					85 84 83 
					85 94 84 
					94 85 95 
					95 85 86 
					96 97 86 
					96 86 87 
					95 86 97 
					98 96 87 
					98 87 88 
					98 88 90 
					99 100 89 
					100 90 89 
					99 89 92 
					100 98 90 
					101 102 91 
					99 92 91 
					101 91 93 
					99 91 102 
					103 101 93 
					103 93 94 
					94 95 103 
					95 97 104 
					105 103 95 
					95 104 105 
					106 107 96 
					106 96 98 
					107 97 96 
					107 104 97 
					108 106 98 
					108 98 100 
					109 100 99 
					102 109 99 
					109 108 100 
					110 111 101 
					110 101 103 
					111 102 101 
					102 112 109 
					111 112 102 
					105 110 103 
					113 114 104 
					105 104 114 
					113 104 107 
					115 110 105 
					105 116 115 
					117 116 105 
					105 114 117 
					106 108 118 
					119 107 106 
					106 118 119 
					119 113 107 
					120 118 108 
					120 108 109 
					121 120 109 
					121 109 112 
					122 111 110 
					122 110 115 
					112 111 122 
					112 122 121 
					123 124 113 
					123 113 119 
					124 114 113 
					124 125 114 
					117 114 125 
					115 116 122 
					126 127 116 
					128 122 116 
					126 116 117 
					128 116 127 
					117 125 126 
					129 130 118 
					120 129 118 
					119 118 130 
					119 130 123 
					120 121 131 
					120 131 129 
					121 122 128 
					121 128 131 
					132 123 130 
					133 124 123 
					132 133 123 
					133 125 124 
					133 134 125 
					126 125 134 
					135 127 126 
					126 134 135 
					135 136 127 
					136 128 127 
					131 128 137 
					136 137 128 
					129 138 130 
					129 131 139 
					129 139 138 
					138 140 130 
					140 132 130 
					131 137 139 
					140 141 132 
					141 133 132 
					141 142 133 
					142 134 133 
					142 143 134 
					135 134 143 
					144 136 135 
					135 143 144 
					145 137 136 
					146 147 136 
					148 146 136 
					147 145 136 
					148 136 144 
					139 137 145 
					138 139 149 
					150 140 138 
					138 149 150 
					139 145 149 
					150 151 140 
					141 140 151 
					151 152 141 
					142 141 152 
					152 153 142 
					153 143 142 
					153 154 143 
					144 143 154 
					144 154 148 
					149 145 147 
					155 156 146 
					147 146 156 
					155 146 148 
					157 147 158 
					149 147 157 
					147 156 158 
					148 154 159 
					148 159 155 
					150 149 157 
					160 151 150 
					150 157 160 
					161 152 151 
					160 161 151 
					162 152 161 
					163 152 162 
					164 153 152 
					164 152 163 
					164 154 153 
					164 159 154 
					165 166 155 
					166 156 155 
					165 155 159 
					166 167 156 
					158 156 167 
					160 157 168 
					157 158 168 
					168 158 169 
					158 167 169 
					170 165 159 
					170 159 164 
					171 161 160 
					160 168 171 
					172 162 161 
					171 173 161 
					172 161 173 
					174 162 172 
					163 162 174 
					170 164 163 
					174 175 163 
					170 163 175 
					176 177 165 
					178 179 165 
					165 179 166 
					176 165 170 
					178 165 177 
					179 167 166 
					167 179 180 
					167 180 169 
					171 168 181 
					168 169 181 
					169 180 182 
					169 182 183 
					169 183 181 
					170 175 184 
					170 184 176 
					171 181 185 
					185 173 171 
					172 186 187 
					173 186 172 
					172 187 174 
					185 188 173 
					173 188 186 
					174 187 175 
					187 184 175 
					178 177 176 
					178 176 184 
					189 190 178 
					189 178 191 
					190 179 178 
					178 184 191 
					190 180 179 
					192 182 180 
					192 180 190 
					193 185 181 
					193 181 183 
					182 192 183 
					193 183 194 
					183 192 194 
					191 184 195 
					187 195 184 
					196 188 185 
					196 185 193 
					186 197 195 
					186 188 196 
					186 195 187 
					186 196 197 
					194 189 198 
					191 198 189 
					194 190 189 
					194 192 190 
					191 199 198 
					191 195 199 
					198 196 193 
					194 198 193 
					199 195 197 
					197 196 198 
					197 198 199 
					200 201 202 
				</DataArray>
				<DataArray type="Int32" Name="offsets" format="ascii">
					3 6 9 12 15 18 21 24 27 30 33 36 39 42 45 48 51 54 57 60 63 66 69 72 75 78 81 84 87 90 93 96 99 102 105 108 111 114 117 120 123 126 129 132 135 138 141 144 147 150 153 156 159 162 165 168 171 174 177 180 183 186 189 192 195 198 201 204 207 210 213 216 219 222 225 228 231 234 237 240 243 246 249 252 255 258 261 264 267 270 273 276 279 282 285 288 291 294 297 300 303 306 309 312 315 318 321 324 327 330 333 336 339 342 345 348 351 354 357 360 363 366 369 372 375 378 381 384 387 390 393 396 399 402 405 408 411 414 417 420 423 426 429 432 435 438 441 444 447 450 453 456 459 462 465 468 471 474 477 480 483 486 489 492 495 498 501 504 507 510 513 516 519 522 525 528 531 534 537 540 543 546 549 552 555 558 561 564 567 570 573 576 579 582 585 588 591 594 597 600 603 606 609 612 615 618 621 624 627 630 633 636 639 642 645 648 651 654 657 660 663 666 669 672 675 678 681 684 687 690 693 696 699 702 705 708 711 714 717 720 723 726 729 732 735 738 741 744 747 750 753 756 759 762 765 768 771 774 777 780 783 786 789 792 795 798 801 804 807 810 813 816 819 822 825 828 831 834 837 840 843 846 849 852 855 858 861 864 867 870 873 876 879 882 885 888 891 894 897 900 903 906 909 912 915 918 921 924 927 930 933 936 939 942 945 948 951 954 957 960 963 966 969 972 975 978 981 984 987 990 993 996 999 1002 1005 1008 1011 1014 1017 1020 1023 1026 1029 1032 1035 1038 1041 1044 1047 1050 1053 1056 1059 1062 1065 1068 1071 1074 1077 1080 1083 1086 1089 1092 1095 1098 1101 1104 1107 1110 1113 1116 1119 1122 1125 1128 1131 1134 1137 1140 1143 1146 1149 1152 1155 1158 1161 1164 1167 1170 1173 1176 1179 1182 1185 1188 1191 1194 
				</DataArray>
			</Polys>
		</Piece>
	</PolyData>
</VTKFile>
