<?xml version="1.0"?>
<VTKFile type="PolyData" version="0.1" byte_order="LittleEndian" compressor="vtkZLibDataCompressor">
	<PolyData>
		<Piece NumberOfPoints="5434" NumberOfVerts="0" NumberOfLines="0" NumberOfStrips="0" NumberOfPolys="9510">
		<PointData Normals="Normals">
		<DataArray type="Float32" Name="Normals" NumberOfComponents="3" format="ascii">
			 0.902914  0.325948  0.280186
			 0.755521  0.268925  0.597384
			 0.937087  0.341930  0.070376
			 0.936390  0.340095 -0.086658
			 0.567454  0.672218 -0.475519
			 0.220975  0.571064 -0.790605
			 0.485207  0.870391 -0.083627
			 0.371082  0.928044 -0.032141
			 0.899262  0.371091 -0.231558
			 0.775368 -0.178328 -0.605809
			 0.977561 -0.112238  0.178261
			 0.738098  0.304673  0.601985
			 0.834771  0.344762 -0.429298
			 0.915717  0.377960 -0.136410
			 0.356630  0.929361 -0.095413
			 0.899157  0.370944  0.232201
			 0.347274  0.923469  0.163112
			 0.245496  0.101284 -0.964092
			-0.028690  0.932238 -0.360707
			-0.397595  0.332114 -0.855347
			 0.156331  0.591708 -0.790849
			 0.536405  0.711301 -0.454225
			 0.536502  0.711308 -0.454100
			 0.156481  0.591781 -0.790765
			-0.397502  0.332211 -0.855352
			 0.634662  0.261342 -0.727258
			 0.922847  0.264598  0.279894
			 0.772390  0.217525  0.596739
			 0.957898  0.278342  0.070398
			 0.988902 -0.126677 -0.077628
			 0.612391  0.632561 -0.474177
			 0.261108  0.555016 -0.789797
			 0.544917  0.834279 -0.083933
			 0.989043 -0.141938 -0.040581
			 0.921836  0.311090 -0.231176
			 0.761246 -0.229780 -0.606387
			 0.967769 -0.177767  0.178385
			 0.757205  0.255157  0.601278
			 0.855730  0.288265 -0.429686
			 0.938687  0.316744 -0.136162
			 0.981011 -0.151781 -0.120748
			 0.873627 -0.459199  0.160971
			 0.921803  0.310692  0.231842
			 0.760848 -0.230451  0.606632
			 0.704796 -0.699076 -0.120645
			 0.514344 -0.338836 -0.787807
			 0.874574 -0.179260 -0.450539
			 0.251944  0.085225 -0.963982
			 0.874590 -0.179198 -0.450534
			 0.514424 -0.338762 -0.787787
			 0.704943 -0.698914 -0.120723
			 0.689728  0.232427  0.685750
			 0.940915  0.191108  0.279565
			 0.787551  0.156282  0.596104
			 0.976865  0.201958  0.070346
			 0.975634 -0.205220 -0.077615
			 0.662127  0.581319 -0.472924
			 0.306941  0.532182 -0.789031
			 0.611219  0.786954 -0.084353
			 0.974698 -0.219798 -0.040652
			 0.943318  0.238473 -0.230827
			 0.739864 -0.289909 -0.607086
			 0.950624 -0.253776  0.178637
			 0.775188  0.196125  0.600515
			 0.875081  0.221926 -0.430095
			 0.960500  0.242803 -0.135965
			 0.965901 -0.228959 -0.120886
			 0.833481 -0.528501  0.161236
			 0.943172  0.238389  0.231509
			 0.739564 -0.290135  0.607344
			 0.644636 -0.754788 -0.121403
			 0.484157 -0.379009 -0.788634
			 0.857330 -0.248074 -0.451049
			 0.258149  0.065438 -0.963886
			 0.857367 -0.248037 -0.450998
			 0.484244 -0.378979 -0.788595
			 0.644763 -0.754690 -0.121346
			 0.706204  0.178255  0.685202
			 0.958616  0.055854  0.279169
			 0.802126  0.042645  0.595631
			 0.995626  0.061822  0.070056
			 0.935871 -0.343549 -0.078230
			 0.739939  0.480079 -0.471184
			 0.383847  0.481691 -0.787804
			 0.720486  0.688240 -0.085004
			 0.933485 -0.356288 -0.040793
			 0.967449  0.104427 -0.230517
			 0.689022 -0.392503 -0.609254
			 0.904543 -0.386795  0.179420
			 0.795544  0.085644  0.599812
			 0.897354  0.097059 -0.430506
			 0.985023  0.106185 -0.135845
			 0.923265 -0.364451 -0.121480
			 0.746704 -0.645123  0.162014
			 0.967288  0.104317  0.231239
			 0.688747 -0.392847  0.609343
			 0.523738 -0.843024 -0.122514
			 0.421042 -0.444683 -0.790557
			 0.812211 -0.367796 -0.452813
			 0.265099  0.028834 -0.963790
			 0.812217 -0.367839 -0.452767
			 0.421007 -0.444738 -0.790545
			 0.523637 -0.843111 -0.122347
			 0.724745  0.077954  0.684593
			 0.959881  0.026512  0.279151
			 0.803044  0.017914  0.595650
			 0.997066  0.031218  0.069897
			 0.924687 -0.372573 -0.078381
			 0.754720  0.456836 -0.470848
			 0.399298  0.469396 -0.787546
			 0.742034  0.664937 -0.085113
			 0.922068 -0.384855 -0.040958
			 0.970190  0.075127 -0.230405
			 0.676185 -0.413595 -0.609683
			 0.892139 -0.414487  0.179688
			 0.797800  0.061445  0.599782
			 0.899896  0.069587 -0.430517
			 0.987790  0.076239 -0.135860
			 0.911556 -0.392751 -0.121702
			 0.725808 -0.668489  0.162251
			 0.970035  0.075227  0.231026
			 0.675808 -0.413851  0.609927
			 0.495718 -0.859785 -0.122611
			 0.406158 -0.457698 -0.790916
			 0.800289 -0.392631 -0.453186
			 0.265894  0.020913 -0.963776
			 0.800339 -0.392584 -0.453139
			 0.406276 -0.457666 -0.790874
			 0.495916 -0.859673 -0.122591
			 0.726777  0.056161  0.684574
			-0.663903  0.228090  0.712185
			 0.797125 -0.022731  0.603387
			-0.983978  0.164309 -0.069205
			-0.208705  0.835800 -0.507820
			-0.112627 -0.977153  0.180242
			-0.487606 -0.378823  0.786596
			 0.166775 -0.552581  0.816603
			-0.424540  0.905043  0.025730
			 0.097779  0.970792 -0.219097
			 0.464077  0.810847  0.356596
			-0.006824  0.788877  0.614513
			 0.794326 -0.094028  0.600171
			 0.427326 -0.050727  0.902673
			-0.983872  0.116071  0.136104
			-0.815954  0.564897  0.122924
			-0.574298  0.802058 -0.163965
			-0.574178  0.802152 -0.163927
			-0.577045  0.538806 -0.613764
			-0.305157  0.944302  0.123176
			-0.301449  0.528134  0.793853
			-0.704923  0.542647  0.456747
			-0.264544  0.030860  0.963880
			-0.704778  0.542697  0.456910
			-0.301177  0.528109  0.793973
			-0.304701  0.944424  0.123373
			-0.723547  0.085844 -0.684917
			-0.707538  0.451045  0.544012
			 0.856580 -0.056985  0.512858
			-0.949633  0.303096 -0.079565
			-0.106810  0.886547 -0.450141
			-0.455538 -0.867918  0.197996
			-0.624310 -0.248278  0.740672
			 0.064975 -0.549518  0.832952
			-0.287226  0.957618  0.021632
			 0.275513  0.943519 -0.184024
			 0.551462  0.746822  0.371681
			 0.168397  0.816122  0.552799
			 0.835078 -0.191928  0.515566
			 0.463525 -0.106753  0.879630
			-0.968492  0.222512  0.111852
			-0.748320  0.655161  0.103832
			-0.467906  0.872605 -0.140088
			-0.467866  0.872640 -0.140005
			-0.553725  0.613589 -0.562936
			-0.220407  0.960341  0.170779
			-0.251514  0.575048  0.778499
			-0.668721  0.629619  0.395466
			-0.307932  0.070352  0.948804
			-0.668640  0.629603  0.395627
			-0.251385  0.574966  0.778601
			-0.220228  0.960329  0.171076
			-0.768426  0.176622 -0.615082
			-0.644193  0.273609  0.714250
			 0.793704 -0.074866  0.603680
			-0.970725  0.230112 -0.068851
			-0.135978  0.851649 -0.506165
			-0.366976 -0.929333  0.040850
			-0.598507 -0.331135  0.729478
			 0.127424 -0.561462  0.817633
			-0.359149  0.932920  0.025914
			 0.168313  0.960997 -0.219442
			 0.408946  0.872114  0.268663
			 0.049950  0.786913  0.615039
			 0.785929 -0.146444  0.600724
			 0.422641 -0.079074  0.902841
			-0.973961  0.181252  0.136193
			-0.775786  0.618826  0.123327
			-0.513356  0.842634 -0.162582
			-0.516487  0.840318 -0.164639
			-0.602491  0.582179 -0.545961
			-0.345993  0.910830  0.225117
			-0.255522  0.544956  0.798581
			-0.661607  0.589459  0.463481
			-0.360962  0.066789  0.930186
			-0.665762  0.588834  0.458296
			-0.262684  0.546751  0.795022
			-0.356144  0.908729  0.217654
			-0.783512  0.146122 -0.603951
			-0.655598  0.324735  0.681717
			 0.793883 -0.079877  0.602801
			-0.961212  0.265014 -0.076420
			-0.124818  0.850393 -0.511129
			-0.250717 -0.954106  0.163775
			-0.539882 -0.316213  0.780088
			 0.094623 -0.558111  0.824353
			-0.324520  0.945519  0.026107
			 0.207267  0.953312 -0.219630
			 0.551789  0.754983  0.354301
			 0.082025  0.783180  0.616361
			 0.781466 -0.167528  0.601037
			 0.420271 -0.090322  0.902892
			-0.968747  0.207232  0.136320
			-0.756949  0.641568  0.124170
			-0.487345  0.857293 -0.165964
			-0.487269  0.857337 -0.165958
			-0.517683  0.591399 -0.618264
			-0.198735  0.972184  0.123948
			-0.241696  0.553184  0.797227
			-0.646665  0.607799  0.460874
			-0.260033  0.055359  0.964012
			-0.646573  0.607827  0.460966
			-0.241523  0.553156  0.797298
			-0.198425  0.972236  0.124037
			-0.711780  0.152755 -0.685592
			-0.696240  0.467135  0.545009
			 0.854998 -0.076367  0.512978
			-0.942526  0.324524 -0.079560
			-0.084427  0.888901 -0.450252
			-0.475545 -0.857054  0.198281
			-0.629802 -0.233834  0.740723
			 0.052112 -0.550526  0.833190
			-0.264378  0.964176  0.021666
			 0.298362  0.936545 -0.184019
			 0.569371  0.733312  0.371577
			 0.187974  0.811654  0.553068
			 0.830375 -0.210792  0.515795
			 0.460870 -0.117213  0.879693
			-0.963227  0.244252  0.111961
			-0.733149  0.672070  0.103995
			-0.447092  0.883435 -0.140184
			-0.447234  0.883365 -0.140174
			-0.539047  0.626070 -0.563440
			-0.196687  0.965408  0.171176
			-0.237320  0.580377  0.779001
			-0.653688  0.644770  0.396186
			-0.306134  0.077290  0.948846
			-0.653811  0.644720  0.396064
			-0.237592  0.580421  0.778884
			-0.197157  0.965331  0.171072
			-0.764133  0.193855 -0.615240
			-0.840900  0.073648 -0.536156
			-0.983326  0.036248 -0.178203
			-0.872939  0.487186  0.025049
			 0.273124  0.948056 -0.163071
			 0.361530  0.703330 -0.612065
			-0.873655 -0.441412 -0.204654
			-0.174449 -0.886038 -0.429539
			-0.382775 -0.193061 -0.903444
			-0.107847 -0.600600 -0.792242
			-0.296621 -0.954449  0.032283
			-0.884255 -0.446537  0.136738
			-0.992654  0.009046  0.120652
			-0.891398  0.051725  0.450259
			-0.560050  0.259908  0.786633
			-0.004925  0.512838  0.858471
			 0.272970  0.947959  0.163891
			 0.794165 -0.599273 -0.100867
			 0.931813 -0.325389  0.160766
			 0.787115 -0.117656 -0.605481
			 0.423750 -0.299415 -0.854860
			 0.236474  0.119478 -0.964264
			-0.479135 -0.750046  0.455918
			-0.108391 -0.600926  0.791922
			 0.423223 -0.299920  0.854945
			 0.786747 -0.118051  0.605882
			 0.648620  0.327265  0.687160
			-0.683314  0.170391  0.709964
			 0.796234  0.042630  0.603484
			-0.994268  0.081233 -0.069521
			-0.284565  0.813347 -0.507434
			-0.024640 -0.983540  0.179004
			-0.452252 -0.419644  0.786999
			 0.215592 -0.537838  0.815016
			-0.503462  0.863638  0.025613
			 0.008595  0.975716 -0.218872
			 0.388441  0.849287  0.357525
			-0.078807  0.785754  0.613498
			 0.799612 -0.027511  0.599887
			 0.430249 -0.015128  0.902583
			-0.990145  0.033798  0.135907
			-0.861107  0.493497  0.122292
			-0.642366  0.748821 -0.163195
			-0.642363  0.748830 -0.163166
			-0.622394  0.487917 -0.612016
			-0.388936  0.913018  0.122992
			-0.348090  0.500567  0.792632
			-0.749626  0.480609  0.455055
			-0.266389  0.008924  0.963824
			-0.749599  0.480611  0.455098
			-0.348048  0.500555  0.792659
			-0.388879  0.913032  0.123071
			-0.728423  0.025264 -0.684662
			 0.939538  0.199715  0.278176
			 0.791857  0.163793  0.588332
			 0.974640  0.211352  0.073532
			 0.977614 -0.197689 -0.072044
			 0.670636  0.583456 -0.458068
			 0.325763  0.532982 -0.780902
			 0.623961  0.776968 -0.083624
			 0.977269 -0.208136 -0.040315
			 0.939608  0.256557 -0.226530
			 0.742627 -0.281073 -0.607867
			 0.953602 -0.242126  0.178938
			 0.777319  0.212080  0.592281
			 0.868762  0.237371 -0.434635
			 0.956077  0.260998 -0.133407
			 0.968639 -0.217353 -0.120400
			 0.834040 -0.527596  0.161303
			 0.939428  0.256426  0.227422
			 0.742203 -0.281491  0.608192
			 0.641497 -0.756570 -0.126826
			 0.481576 -0.376674 -0.791329
			 0.861046 -0.237557 -0.449628
			 0.261406  0.071787 -0.962556
			 0.860995 -0.237615 -0.449696
			 0.481445 -0.376725 -0.791384
			 0.641297 -0.756729 -0.126882
			 0.708551  0.193487  0.678615
			 0.949189 -0.085170  0.302962
			 0.808456 -0.080525  0.583022
			 0.989877 -0.081252  0.116371
			 0.898576 -0.438363 -0.019972
			 0.851884  0.339972 -0.398387
			 0.541118  0.385383 -0.747443
			 0.868836  0.495099 -0.000829
			 0.901164 -0.431650 -0.039769
			 0.973851  0.022280 -0.226093
			 0.662071 -0.447548 -0.601134
			 0.871073 -0.458476  0.176159
			 0.806252  0.018287  0.591290
			 0.900085  0.020641 -0.435226
			 0.990825  0.022688 -0.133236
			 0.890860 -0.438497 -0.118701
			 0.694734 -0.701628  0.158310
			 0.973678  0.022184  0.226845
			 0.661665 -0.447806  0.601389
			 0.464196 -0.876756 -0.125780
			 0.390593 -0.478616 -0.786361
			 0.784492 -0.433136 -0.443809
			 0.271422  0.006394 -0.962439
			 0.784471 -0.433123 -0.443858
			 0.390574 -0.478591 -0.786386
			 0.464191 -0.876742 -0.125899
			 0.735049  0.016646  0.677810
			-0.576080  0.748101  0.329359
			 0.810783 -0.059942  0.582269
			-0.808022  0.572731 -0.138125
			-0.036121  0.868938 -0.493602
			-0.765636 -0.639586 -0.068787
			-0.684518 -0.007881  0.728954
			-0.121829 -0.456668  0.881256
			-0.122019  0.992213  0.025015
			 0.382708  0.898057 -0.216858
			 0.685147  0.631526  0.362972
			 0.231586  0.758767  0.608803
			 0.716105 -0.362590  0.596425
			 0.385695 -0.195586  0.901657
			-0.884184  0.447208  0.134993
			-0.580967  0.805100  0.119544
			-0.288902  0.944120 -0.158660
			-0.288785  0.944157 -0.158653
			-0.373842  0.705498 -0.602092
			-0.004101  0.992437  0.122685
			-0.123225  0.606182  0.785722
			-0.488732  0.749844  0.445953
			-0.239664  0.120837  0.963306
			-0.488614  0.749863  0.446052
			-0.123025  0.606117  0.785803
			-0.003725  0.992428  0.122770
			-0.652511  0.330460 -0.681928
			-0.764007  0.453474  0.458971
			 0.805596  0.063195  0.589086
			-0.955655  0.270900 -0.115486
			-0.246073  0.828512 -0.503008
			-0.401608 -0.914687  0.045374
			-0.606312 -0.271566  0.747421
			 0.059572 -0.522306  0.850675
			-0.386847  0.921804  0.025039
			 0.135780  0.967016 -0.215510
			 0.491707  0.792565  0.360646
			 0.026613  0.793758  0.607651
			 0.794231 -0.136096  0.592178
			 0.428464 -0.073650  0.900552
			-0.976863  0.167038  0.133557
			-0.788124  0.603715  0.119954
			-0.539405  0.826713 -0.159962
			-0.539477  0.826669 -0.159948
			-0.557914  0.567679 -0.605370
			-0.272833  0.953705  0.126524
			-0.283322  0.544502  0.789459
			-0.682839  0.577321  0.447695
			-0.267119  0.045321  0.962597
			-0.682904  0.577283  0.447645
			-0.283459  0.544498  0.789413
			-0.273081  0.953636  0.126512
			-0.724075  0.124084 -0.678468
			 0.872919  0.405069  0.271906
			 0.734626  0.336321  0.589248
			 0.903681  0.423536  0.063072
			 0.996275  0.011486 -0.085465
			 0.519493  0.714880 -0.468053
			 0.193286  0.587473 -0.785822
			 0.430081  0.897000 -0.102089
			 0.999160  0.003554 -0.040829
			 0.861251  0.454973 -0.226374
			 0.780123 -0.120710 -0.613871
			 0.982727 -0.035739  0.181576
			 0.712557  0.376474  0.592056
			 0.796268  0.420599 -0.434804
			 0.876274  0.462982 -0.133389
			 0.992488 -0.007764 -0.122098
			 0.922468 -0.349507  0.164007
			 0.861039  0.454955  0.227216
			 0.779677 -0.120971  0.614386
			 0.774134 -0.619776 -0.128820
			 0.540559 -0.271411 -0.796324
			 0.888989 -0.051500 -0.455023
			 0.239760  0.126633 -0.962538
			 0.889013 -0.051466 -0.454981
			 0.540625 -0.271373 -0.796292
			 0.774223 -0.619674 -0.128776
			 0.649597  0.343182  0.678418
			-0.705873  0.550195  0.446128
			 0.902153  0.173883  0.394823
			-0.977930  0.194800 -0.075536
			-0.051017  0.916747 -0.396197
			-0.621853 -0.749325  0.227621
			-0.682806 -0.178517  0.708454
			 0.054098 -0.439416  0.896653
			-0.276380  0.960841  0.019947
			 0.349421  0.923492 -0.158326
			 0.587607  0.718753  0.371634
			 0.292419  0.822824  0.487290
			 0.901256 -0.046333  0.430802
			 0.514879 -0.024128  0.856923
			-0.994615  0.051113  0.090161
			-0.833909  0.543572  0.095523
			-0.234992  0.967425 -0.094171
			-0.431384  0.893855 -0.122195
			-0.315837  0.857423 -0.406292
			-0.186699  0.957677  0.219085
			-0.259426  0.530872  0.806767
			-0.763301  0.530360  0.368904
			-0.348796  0.090117  0.932856
			-0.763393  0.530325  0.368763
			-0.259786  0.530945  0.806603
			-0.187287  0.957581  0.219002
			-0.803884  0.208685 -0.556975
			-0.291265  0.956399  0.021578
			-0.479022  0.873919  0.082476
			-0.671086  0.627004  0.395613
			-0.253621  0.574041  0.778559
			 0.411790  0.375369  0.830378
			-0.867169 -0.497412  0.024471
			-0.350065 -0.762821  0.543654
			-0.350065 -0.762821  0.543654
			-0.969384  0.218576  0.111888
			 0.854084  0.504322 -0.127278
			 0.959099  0.230652  0.164099
			 0.802117  0.276455 -0.529322
			 0.412327  0.375832 -0.829902
			 0.789243  0.524880 -0.318741
			 0.859286  0.248710  0.446957
			-0.897319 -0.242086  0.369071
			-0.547064 -0.374407  0.748692
			 0.129551 -0.509675  0.850557
			 0.556128 -0.611467  0.562876
			 0.769119 -0.173571  0.615084
			 0.392755 -0.851675 -0.346976
			 0.130161 -0.509204 -0.850746
			 0.556470 -0.611201 -0.562828
			 0.276439 -0.954794 -0.109314
			 0.471476 -0.870708  0.139923
			 0.835915 -0.188454  0.515491
			-0.679054  0.632916  0.371891
			 0.901363 -0.013754  0.432846
			-0.916918  0.389640 -0.086268
			-0.051663  0.916741 -0.396127
			-0.727481 -0.658330  0.193322
			-0.709437 -0.142045  0.690306
			-0.009100 -0.500006  0.865974
			-0.214510  0.976544  0.018641
			 0.362446  0.918735 -0.156711
			 0.586031  0.721459  0.368869
			 0.284930  0.819094  0.497896
			 0.860190 -0.241233  0.449311
			 0.489261 -0.137852  0.861174
			-0.958597  0.268544  0.094741
			-0.713201  0.695131  0.090205
			-0.429687  0.894202 -0.125590
			-0.439263  0.889742 -0.124125
			-0.573992  0.625873 -0.528031
			-0.198815  0.953660  0.225845
			-0.222731  0.599793  0.768530
			-0.652687  0.672081  0.349725
			-0.352016  0.078725  0.932677
			-0.652631  0.672129  0.349737
			-0.222562  0.599791  0.768581
			-0.198514  0.953735  0.225792
			-0.812945  0.182689 -0.552943
			-0.696682  0.636853  0.330232
			 0.916400  0.087916  0.390490
			-0.939086  0.333400 -0.083442
			-0.075194  0.925322 -0.371653
			-0.752369 -0.627678  0.199905
			-0.722074 -0.144178  0.676626
			 0.009850 -0.466441  0.884498
			-0.240432  0.970504  0.017740
			 0.367331  0.918637 -0.145515
			 0.557329  0.744437  0.367692
			 0.284652  0.835704  0.469651
			 0.892024 -0.174520  0.416937
			 0.514086 -0.100665  0.851811
			-0.977676  0.191272  0.086972
			-0.761768  0.642222  0.085210
			-0.453275  0.883659 -0.116998
			-0.453310  0.883643 -0.116984
			-0.607524  0.613565 -0.504433
			-0.241770  0.938146  0.247849
			-0.255256  0.584389  0.770282
			-0.706074  0.625492  0.331994
			-0.373216  0.072692  0.924892
			-0.706099  0.625480  0.331962
			-0.255330  0.584404  0.770246
			-0.241887  0.938125  0.247812
			-0.834923  0.163486 -0.525525
			-0.747131  0.578770  0.326835
			 0.906485  0.160752  0.390441
			-0.962408  0.258415 -0.083623
			-0.154720  0.915699 -0.370887
			-0.700217 -0.685732  0.198663
			-0.708692 -0.200944  0.676296
			 0.047324 -0.465229  0.883925
			-0.320297  0.947154  0.017585
			 0.288136  0.946488 -0.145394
			 0.492427  0.788737  0.367981
			 0.213128  0.857114  0.468970
			 0.903233 -0.103950  0.416372
			 0.520678 -0.060017  0.851641
			-0.989728  0.113634  0.086748
			-0.810558  0.579502  0.084697
			-0.524250  0.843559 -0.116492
			-0.524144  0.843625 -0.116494
			-0.655765  0.563355 -0.502597
			-0.319947  0.914565  0.247398
			-0.303507  0.562882  0.768796
			-0.754193  0.567424  0.330489
			-0.378150  0.043197  0.924736
			-0.754114  0.567473  0.330585
			-0.303264  0.562858  0.768909
			-0.319571  0.914668  0.247501
			-0.845606  0.097235 -0.524877
			-0.491761 -0.513592 -0.703132
			 0.285695 -0.461830 -0.839697
			 0.748899 -0.436254 -0.498831
			 0.483992 -0.870479 -0.089547
			-0.725899 -0.687565  0.018018
			-0.752504 -0.360760 -0.550989
			-0.832645 -0.386364 -0.396768
			-0.523266 -0.033120 -0.851526
			 0.380136  0.024530 -0.924605
			-0.907580 -0.057706 -0.415895
			 0.534883  0.034350 -0.844228
			 0.712797  0.472761 -0.518091
			 0.671795 -0.731722  0.115214
			 0.717784  0.689588  0.096202
			-0.836813 -0.467698  0.284610
			-0.492088 -0.513941  0.702647
			 0.285309 -0.462344  0.839546
			 0.748712 -0.436473  0.498920
			-0.892527 -0.056739 -0.447410
			-0.732868  0.617739 -0.285136
			-0.901501  0.424555  0.083958
			-0.994222 -0.063348  0.086662
			 0.849731  0.054115  0.524432
			 0.381159  0.476990  0.791958
			-0.405799  0.499308  0.765518
			-0.844830  0.422848  0.327813
			 0.774599 -0.632452  0.000327
			 0.606955 -0.772608  0.186235
			 0.164202 -0.986427  0.000016
			 0.953679  0.073061  0.291818
			 0.998235 -0.059394  0.000213
			 0.607052 -0.772588 -0.186001
			 0.953760  0.073136 -0.291535
			 0.592731 -0.644550  0.482934
			 0.320699 -0.593177  0.738439
			-0.190550 -0.981545 -0.016139
			-0.307715 -0.951479 -0.000012
			-0.242399 -0.955411  0.168623
			-0.060501 -0.690034  0.721244
			 0.592728 -0.644555 -0.482931
			 0.320699 -0.593182 -0.738436
			-0.190549 -0.981545  0.016118
			-0.242392 -0.955413 -0.168620
			-0.060494 -0.690039 -0.721240
			 0.926074  0.377342  0.000175
			 0.850575  0.397600  0.344146
			 0.619613  0.255802  0.742054
			 0.850674  0.397659 -0.343834
			 0.619613  0.255802 -0.742054
			 0.202977  0.190714  0.960431
			-0.769029 -0.638085 -0.037973
			-0.930515 -0.366254 -0.000020
			-0.769029 -0.638085  0.037969
			-0.242482 -0.078052  0.967011
			-0.652918 -0.532824  0.538328
			-0.848996 -0.486525 -0.206154
			 0.202977  0.190714 -0.960431
			-0.652918 -0.532824 -0.538328
			-0.242482 -0.078052 -0.967011
			-0.848996 -0.486525  0.206154
			 0.998161  0.060620  0.000374
			 0.923583 -0.037299  0.381579
			 0.567707  0.305322  0.764518
			 0.923701 -0.037283 -0.381296
			 0.567707  0.305322 -0.764518
			 0.186390  0.191633  0.963606
			-0.951650 -0.147408 -0.269504
			-0.986173 -0.165718 -0.000079
			-0.951658 -0.147418  0.269470
			-0.148670  0.006162  0.988868
			-0.035858 -0.502201  0.864007
			-0.666000 -0.605421 -0.435786
			 0.186390  0.191633 -0.963606
			-0.035858 -0.502201 -0.864007
			-0.148670  0.006162 -0.988868
			-0.666000 -0.605421  0.435786
			 0.999701 -0.024445  0.000217
			 0.941338 -0.081162  0.327560
			 0.575439 -0.200925  0.792779
			 0.941396 -0.081144 -0.327398
			 0.575439 -0.200925 -0.792779
			 0.230791 -0.282605  0.931059
			-0.952075 -0.144183 -0.269749
			-0.409368 -0.004019 -0.912360
			-0.989182 -0.146696 -0.000157
			-0.952098 -0.144209  0.269653
			-0.409368 -0.004019  0.912360
			 0.024171 -0.299735  0.953716
			 0.138622  0.022291  0.990094
			 0.056157 -0.978956  0.196191
			-0.091054 -0.637964  0.764664
			 0.033621 -0.073337  0.996740
			 0.650365  0.224659 -0.725641
			 0.230791 -0.282605 -0.931059
			 0.138622  0.022291 -0.990094
			 0.024171 -0.299735 -0.953716
			-0.091054 -0.637964 -0.764664
			 0.056157 -0.978956 -0.196191
			 0.033621 -0.073337 -0.996740
			 0.650528  0.224755  0.725464
			 0.813286  0.581864  0.000185
			 0.667733  0.661161  0.342052
			 0.606455 -0.187583  0.772674
			 0.667773  0.661192 -0.341913
			 0.606455 -0.187583 -0.772674
			 0.197100 -0.323520  0.925466
			-0.583603  0.742549 -0.328676
			-0.241932 -0.018680 -0.970113
			-0.740748  0.671783 -0.000236
			-0.583660  0.742565  0.328538
			-0.241932 -0.018680  0.970113
			-0.073176 -0.220775  0.972576
			-0.199234  0.221636  0.954559
			-0.184277  0.687684  0.702234
			-0.114328 -0.575317  0.809901
			-0.214720 -0.638546  0.739022
			 0.483117 -0.116830  0.867726
			 0.876219 -0.163647  0.453278
			 0.053463  0.218568  0.974356
			-0.439180 -0.658948  0.610662
			 0.975874  0.218335 -0.000274
			 0.874965 -0.232998 -0.424439
			-0.616876  0.787061  0.000038
			-0.487545  0.492694 -0.720800
			 0.197100 -0.323520 -0.925466
			-0.199234  0.221636 -0.954559
			-0.073176 -0.220775 -0.972576
			-0.184277  0.687684 -0.702234
			-0.214720 -0.638546 -0.739022
			-0.114328 -0.575317 -0.809901
			 0.483117 -0.116830 -0.867726
			 0.876219 -0.163647 -0.453278
			-0.439180 -0.658948 -0.610662
			 0.053463  0.218568 -0.974356
			 0.874989 -0.233098  0.424335
			-0.487470  0.492740  0.720820
			-0.050436  0.998727 -0.000000
			 0.401738  0.746432  0.530515
			 0.207974  0.516276  0.830787
			 0.401732  0.746438 -0.530510
			 0.207973  0.516280 -0.830784
			-0.156434  0.449827  0.879309
			-0.297414  0.949237 -0.102439
			-0.152427  0.924624  0.349051
			-0.716768  0.487407 -0.498676
			-0.219495  0.897904  0.381564
			-0.152427  0.924624 -0.349051
			-0.297414  0.949237  0.102439
			-0.716768  0.487407  0.498676
			-0.219485  0.897910 -0.381556
			 0.217251  0.633642  0.742496
			 0.213178  0.673925  0.707375
			 0.450602  0.358482  0.817587
			 0.326550 -0.650440  0.685779
			 0.504759  0.265766  0.821333
			-0.852074  0.113542  0.510958
			-0.022879 -0.003318  0.999733
			-0.670927 -0.674509 -0.308050
			-0.945976  0.087974 -0.312075
			 0.924262  0.029058  0.380651
			-0.023887  0.225474  0.973956
			 0.103245  0.008550  0.994619
			-0.790612 -0.534377  0.298955
			-0.975812  0.085934 -0.201014
			 0.216606 -0.976259 -0.000100
			 0.096917 -0.916233 -0.388746
			-0.916871  0.399184  0.000231
			-0.691185  0.625302  0.362298
			-0.871333  0.447556  0.201177
			-0.933476  0.284790 -0.217984
			-0.691106  0.625472 -0.362156
			-0.871286  0.447717 -0.201022
			-0.933460  0.284788  0.218057
			-0.814956  0.239378 -0.527773
			-0.156430  0.449834 -0.879306
			 0.217251  0.633642 -0.742496
			 0.213178  0.673925 -0.707375
			-0.022879 -0.003318 -0.999733
			-0.852074  0.113542 -0.510958
			 0.326550 -0.650440 -0.685779
			-0.670927 -0.674509  0.308050
			-0.945976  0.087974  0.312075
			 0.450602  0.358482 -0.817587
			 0.504759  0.265766 -0.821333
			 0.924262  0.029058 -0.380651
			-0.023887  0.225474 -0.973956
			-0.790612 -0.534377 -0.298955
			 0.103245  0.008550 -0.994619
			-0.975812  0.085934  0.201014
			 0.097033 -0.916238  0.388707
			-0.814956  0.239378  0.527773
			-0.881028  0.330318 -0.338643
			-0.656034  0.042287 -0.753545
			-0.881028  0.330318  0.338643
			-0.656034  0.042287  0.753545
			-0.486376 -0.366080  0.793362
			-0.511851 -0.814353  0.273565
			-0.891161  0.124905  0.436155
			-0.781089 -0.471194  0.409726
			-0.621655 -0.663037  0.417046
			-0.905947  0.339348  0.253187
			 0.557098 -0.779705  0.285834
			 0.313106 -0.892467 -0.324756
			 0.834083 -0.551639 -0.000071
			 0.313082 -0.892513  0.324653
			-0.798585  0.266519  0.539657
			-0.894160  0.447747 -0.000855
			-0.818172  0.094593  0.567138
			-0.798662  0.266504 -0.539551
			-0.817847  0.095242 -0.567500
			-0.905947  0.339348 -0.253187
			-0.781089 -0.471194 -0.409726
			-0.891161  0.124905 -0.436155
			-0.621655 -0.663037 -0.417046
			-0.486376 -0.366080 -0.793362
			-0.511851 -0.814353 -0.273565
			 0.557098 -0.779705 -0.285834
			-0.659896  0.036466  0.750472
			 0.106901 -0.942216  0.317491
			 0.052384 -0.964287 -0.259627
			 0.741629 -0.670810  0.000044
			 0.052384 -0.964287  0.259627
			 0.106901 -0.942216 -0.317491
			-0.766629  0.642089 -0.001403
			-0.658781  0.036145 -0.751466
			-0.136908  0.212544  0.967513
			-0.015765 -0.046601  0.998789
			 0.613295 -0.658256  0.436542
			 0.230801 -0.973001 -0.000446
			 0.613290 -0.658253 -0.436553
			-0.015765 -0.046601 -0.998789
			-0.835893  0.000835  0.548892
			-0.966105 -0.258147 -0.000964
			-0.136123  0.211761 -0.967795
			-0.834888  0.000508 -0.550420
			-0.227592 -0.691136  0.685954
			-0.528899 -0.848684 -0.000888
			-0.226884 -0.690809 -0.686518
			 0.807384 -0.590026  0.000357
			 0.650168 -0.734207  0.195506
			 0.233225 -0.972423  0.000015
			 0.937694  0.146090  0.315258
			 0.999924  0.012348  0.000249
			 0.650268 -0.734182 -0.195265
			 0.937783  0.146207 -0.314939
			 0.617010 -0.606513  0.501440
			 0.345358 -0.569537  0.745893
			-0.331739 -0.943233 -0.016147
			-0.357412 -0.933947  0.000048
			-0.294718 -0.945752  0.136729
			-0.003893 -0.691536  0.722331
			 0.617007 -0.606518 -0.501436
			 0.345359 -0.569541 -0.745889
			-0.331738 -0.943234  0.016132
			-0.294712 -0.945754 -0.136726
			-0.003886 -0.691540 -0.722328
			 0.884452  0.466631  0.000187
			 0.801946  0.471842  0.366399
			 0.563358  0.308037  0.766643
			 0.802051  0.471915 -0.366075
			 0.563358  0.308037 -0.766643
			 0.169698  0.205478  0.963837
			-0.837659 -0.537632  0.096325
			-0.937400 -0.348254  0.000114
			-0.837676 -0.537628 -0.096204
			-0.251724 -0.049190  0.966548
			-0.780151 -0.455180  0.429157
			-0.841157 -0.427960 -0.330613
			 0.169698  0.205478 -0.963837
			-0.780151 -0.455180 -0.429157
			-0.251724 -0.049190 -0.966548
			-0.841157 -0.427960  0.330613
			 0.993847  0.110761  0.000381
			 0.920747 -0.011733  0.389983
			 0.520544  0.328857  0.787964
			 0.920866 -0.011715 -0.389704
			 0.520544  0.328857 -0.787964
			 0.170323  0.167957  0.970969
			-0.965778 -0.151645 -0.210422
			-0.994977 -0.100100 -0.000084
			-0.965776 -0.151639  0.210434
			-0.166897  0.049659  0.984723
			-0.023837 -0.463106  0.885982
			-0.677055 -0.531961 -0.508542
			 0.170323  0.167957 -0.970969
			-0.023837 -0.463106 -0.885982
			-0.166897  0.049659 -0.984723
			-0.677055 -0.531961  0.508542
			 0.999982  0.005928  0.000214
			 0.943437 -0.052378  0.327388
			 0.575903 -0.209124  0.790318
			 0.943494 -0.052359 -0.327228
			 0.575903 -0.209124 -0.790318
			 0.242534 -0.289894  0.925818
			-0.947248 -0.172991 -0.269808
			-0.406144 -0.014455 -0.913695
			-0.984279 -0.176623 -0.000166
			-0.947272 -0.173024  0.269701
			-0.406144 -0.014455  0.913695