<?xml version="1.0"?>
<VTKFile type="PolyData" version="0.1" byte_order="LittleEndian" compressor="vtkZLibDataCompressor">
	<PolyData>
		<Piece NumberOfPoints="2767" NumberOfVerts="0" NumberOfLines="0" NumberOfStrips="0" NumberOfPolys="5442">
		<PointData Normals="Normals">
		<DataArray type="Float32" Name="Normals" NumberOfComponents="3" format="ascii">
			 0.987667  0.151235  0.040521
			 0.622831 -0.649576  0.436041
			 0.332908 -0.530908 -0.779301
			 0.671050  0.674583  0.307621
			 0.663092  0.041999  0.747359
			 0.747551  0.553415 -0.367286
			 0.324162 -0.592725  0.737289
			-0.529533 -0.106446 -0.841584
			-0.042132  0.433245 -0.900291
			-0.472540 -0.878703  0.067730
			-0.023847  0.888271 -0.458699
			-0.253177  0.462313 -0.849805
			 0.420884  0.892963 -0.159604
			 0.505627  0.020400  0.862511
			 0.325694 -0.412785  0.850607
			-0.730314  0.021576 -0.682770
			-0.491299 -0.865503  0.097617
			-0.565498 -0.049177 -0.823282
			-0.384494 -0.229709 -0.894091
			-0.171152  0.278089 -0.945184
			 0.464193  0.884751  0.041720
			 0.377451  0.120927  0.918100
			 0.171422 -0.337909  0.925436
			-0.407110 -0.907443  0.103965
			-0.416820 -0.905734  0.076853
			-0.293742 -0.261769 -0.919343
			-0.010211  0.344296 -0.938806
			 0.438005  0.896299  0.069280
			 0.258131  0.204251  0.944272
			 0.014357 -0.299107  0.954112
			 0.085759  0.134724  0.987165
			 0.027757  0.637185 -0.770211
			-0.183346 -0.339125 -0.922702
			 0.153817  0.369461 -0.916427
			 0.432240  0.890052  0.144831
			 0.101669  0.163110  0.981355
			 0.016117  0.243988  0.969644
			 0.035240  0.367198  0.929475
			-0.244618 -0.705948 -0.664680
			-0.028630 -0.340481 -0.939815
			 0.283859  0.382002 -0.879487
			 0.408293  0.898720  0.159997
			 0.409138  0.907497  0.095166
			-0.124622  0.293703  0.947738
			-0.426968 -0.449043  0.784894
			-0.262777 -0.885783 -0.382541
			 0.118150 -0.353628 -0.927894
			 0.399467  0.403737 -0.823057
			 0.545065  0.465090 -0.697564
			 0.100586  0.852403  0.513119
			-0.351115  0.271748  0.896031
			-0.538037 -0.557813  0.631950
			-0.187950 -0.937796 -0.291914
			 0.349097 -0.221212 -0.910602
			 0.542151 -0.195486 -0.817225
			 0.637027  0.593448 -0.491951
			-0.468912  0.408659  0.783020
			-0.468767  0.383414  0.795771
			-0.602983 -0.590500  0.536396
			-0.021332 -0.892683 -0.450179
			-0.215864 -0.954180 -0.207227
			 0.721444 -0.184036 -0.667570
			 0.393115  0.824110  0.407803
			-0.347266  0.707912  0.615034
			-0.609379  0.384594  0.693358
			-0.781319 -0.107703  0.614768
			-0.950017 -0.188427  0.248923
			 0.039384 -0.851612 -0.522691
			 0.870793 -0.227039 -0.436088
			 0.914201  0.403160 -0.041203
			 0.202744  0.894434  0.398601
			-0.802182  0.343867  0.488118
			-0.799100  0.539850  0.264577
			-0.957301 -0.241183 -0.159389
			-0.007112 -0.894969 -0.446071
			 0.870306 -0.446419 -0.208034
			 0.996224  0.082677  0.026484
			 0.428873  0.798387  0.422666
			 0.406003  0.839072  0.362105
			-0.836422  0.547065 -0.033442
			-0.934665 -0.201938 -0.292613
			-0.142851 -0.926600 -0.347858
			 0.883449 -0.456113  0.107141
			 0.980312  0.001357  0.197449
			 0.852605  0.110456  0.510749
			 0.077876  0.973275  0.216034
			-0.826980  0.416052 -0.378159
			-0.833520 -0.168964 -0.526018
			 0.048778 -0.997475 -0.051623
			 0.874015 -0.077470  0.479683
			 0.974299 -0.215411  0.065869
			 0.847941  0.369942 -0.379656
			-0.327053  0.563661 -0.758500
			-0.406062  0.303087 -0.862120
			-0.245445 -0.222074 -0.943631
			 0.632625 -0.770262 -0.080512
			 0.974287  0.215284  0.066466
			 0.473575 -0.624408  0.621161
			 0.423190 -0.751034 -0.506812
			 0.599163  0.148798  0.786678
			 0.532008  0.586028 -0.611178
			 0.509219  0.860473 -0.016798
			 0.307097 -0.477246  0.823364
			-0.364637  0.110765 -0.924538
			-0.514515 -0.847397  0.131123
			 0.533141  0.315609  0.784953
			 0.430381  0.862120 -0.267435
			-0.237446  0.647681 -0.723967
			-0.107313  0.674887 -0.730076
			-0.049596  0.537739 -0.841651
			 0.269229 -0.334040  0.903290
			-0.578223  0.143752 -0.803115
			-0.555613 -0.828614  0.068502
			 0.400876  0.387420  0.830183
			 0.399709  0.855063 -0.330301
			-0.054499  0.276669 -0.959419
			-0.427710  0.033664 -0.903289
			-0.248859 -0.026789 -0.968169
			 0.084026 -0.307445  0.947849
			-0.503748 -0.859896 -0.082558
			 0.311591  0.494682  0.811296
			 0.413535  0.804717 -0.425934
			 0.059991  0.241721 -0.968490
			-0.105352 -0.092648 -0.990110
			-0.395018 -0.841298 -0.369023
			-0.086021 -0.367974  0.925849
			 0.126425  0.379974  0.916317
			 0.440470  0.625674 -0.643831
			 0.040031 -0.045773 -0.998150
			 0.005571 -0.108014 -0.994134
			-0.334544 -0.776563 -0.533882
			-0.264722 -0.542255  0.797422
			 0.013873  0.305413  0.952119
			 0.449698  0.806176 -0.384516
			 0.128117 -0.050216 -0.990487
			 0.051616 -0.173472 -0.983485
			-0.389415 -0.904506 -0.173852
			-0.293677 -0.436352  0.850500
			-0.079680  0.315824  0.945466
			 0.397480  0.908771  0.127059
			 0.242501 -0.021723 -0.969908
			 0.124394 -0.265075 -0.956170
			-0.513523 -0.824069  0.239175
			-0.195044  0.020026  0.980590
			-0.305054  0.215746  0.927575
			 0.176756  0.917163  0.357169
			 0.468429  0.296124 -0.832397
			 0.269893 -0.420285 -0.866325
			-0.400817 -0.805585  0.436323
			-0.201296  0.323551  0.924551
			-0.394891  0.395169  0.829399
			 0.080005  0.945393  0.315960
			 0.587573  0.456849 -0.667867
			 0.475059 -0.309714 -0.823648
			-0.392975 -0.906704  0.153162
			-0.444856  0.203124  0.872264
			-0.610434  0.311973  0.728041
			-0.064356  0.915125  0.398002
			 0.703856  0.521919 -0.481859
			 0.680397 -0.227413 -0.696666
			-0.151520 -0.974352 -0.166376
			-0.670943 -0.061228  0.738977
			-0.850183  0.168967  0.498637
			-0.471909  0.740580  0.478375
			 0.659852  0.750783 -0.030319
			 0.893105 -0.078646 -0.442920
			 0.069752 -0.923116 -0.378142
			-0.847747 -0.338314  0.408497
			-0.979538  0.123499  0.158911
			-0.497420  0.804996  0.323348
			 0.624899  0.746598  0.228239
			 0.969204 -0.188589 -0.158360
			 0.299304 -0.851230 -0.431074
			-0.843085 -0.532322 -0.076422
			-0.994589  0.082290 -0.063416
			-0.224815  0.935784  0.271600
			 0.706141  0.637314  0.308538
			 0.924396 -0.379859  0.034623
			 0.364845 -0.879770 -0.304782
			-0.532585 -0.771172 -0.348778
			-0.813446 -0.392914 -0.428864
			-0.459240  0.858921 -0.226613
			 0.719513  0.537421  0.439863
			 0.862136 -0.322452  0.390828
			 0.065334 -0.980284 -0.186479
			-0.178182 -0.906810 -0.382030
			-0.659251  0.297029 -0.690769
			-0.588000 -0.231971 -0.774884
			-0.368271 -0.826146 -0.426451
			 0.650281  0.759684 -0.003701
			 0.012120  0.609585 -0.792628
			 0.923921  0.029406  0.381453
			 0.065978 -0.848073 -0.525756
			-0.535704  0.008493 -0.844363
			-0.850333 -0.150034 -0.504405
			-0.557909  0.330854 -0.761100
			 0.144321  0.533855 -0.833169
			-0.263208 -0.837121 -0.479531
			 0.233117 -0.820959 -0.521231
			-0.506707 -0.741915 -0.439101
			-0.987906  0.102497 -0.116347
			-0.298515  0.954283 -0.015277
			 0.858404  0.227479  0.459778
			 0.580395 -0.768785 -0.268537
			 0.384099 -0.920577 -0.070747
			 0.792447 -0.387015  0.471431
			 0.507832 -0.715757 -0.479374
			-0.749832 -0.531246 -0.394372
			-0.990781  0.135460  0.001878
			-0.058248  0.894578  0.443100
			 0.683814  0.453953  0.571249
			 0.995190 -0.094100  0.027255
			 0.954312 -0.263043  0.141763
			 0.804643  0.403781  0.435328
			 0.973912  0.067028 -0.216800
			 0.309766 -0.679697 -0.664873
			-0.821664 -0.541289 -0.178534
			-0.821905  0.337374  0.458966
			 0.101039  0.867201  0.487599
			 0.890748  0.447213  0.081044
			 0.866109  0.404624  0.293486
			 0.772862  0.568968 -0.280996
			 0.855463  0.168005 -0.489855
			 0.304563 -0.703884 -0.641707
			-0.715590 -0.684840  0.137571
			-0.690926  0.146855  0.707853
			 0.719381  0.651044  0.242140
			 0.683355  0.723944 -0.094505
			 0.579198  0.763941 -0.284471
			 0.731500  0.247852 -0.635199
			 0.719416  0.204658 -0.663744
			 0.248220 -0.722620 -0.645141
			-0.653242 -0.668648  0.355226
			-0.402595  0.580222  0.707997
			-0.236669  0.675873  0.697985
			 0.578416  0.674841 -0.458285
			 0.585972  0.235152 -0.775462
			 0.572679  0.197521 -0.795628
			 0.061975 -0.786137 -0.614937
			-0.615450 -0.571840  0.542421
			-0.543220 -0.553391  0.631403
			-0.087937  0.597353  0.797143
			 0.533372  0.684342 -0.497182
			 0.470604  0.252981 -0.845301
			 0.447020  0.121201 -0.886275
			-0.129777 -0.818157 -0.560157
			-0.205987 -0.820979 -0.532505
			-0.497309 -0.572524  0.651844
			 0.066389  0.630020  0.773736
			 0.505082  0.659616 -0.556595
			 0.408463  0.280660 -0.868555
			 0.351714  0.117455 -0.928710
			 0.269030  0.102038 -0.957711
			-0.185248 -0.684640 -0.704948
			-0.460927 -0.679934  0.570294
			 0.167564  0.639727  0.750114
			 0.481338  0.702373 -0.524391
			 0.313796  0.204335 -0.927243
			 0.200720  0.209236 -0.957043
			 0.174425  0.237536 -0.955590
			-0.253795 -0.619110 -0.743163
			-0.360007 -0.621611  0.695697
			 0.196237  0.473012  0.858924
			 0.495601  0.739114 -0.456169
			 0.514035  0.855630 -0.060541
			 0.170051  0.406954 -0.897480
			 0.081356  0.294187 -0.952279
			-0.393604 -0.627780 -0.671541
			-0.330394 -0.664422  0.670360
			 0.116902  0.150039  0.981745
			 0.211112  0.047325  0.976316
			 0.541370  0.840529 -0.020726
			 0.124819  0.471414 -0.873035
			-0.018610  0.366126 -0.930379
			-0.508345 -0.560043 -0.654169
			-0.324773 -0.723920  0.608656
			-0.259874 -0.783166  0.564903
			 0.257124 -0.102069  0.960973
			 0.574643  0.803302  0.156497
			 0.078324  0.629639 -0.772930
			-0.148592  0.431406 -0.889837
			-0.566839 -0.582315 -0.582755
			 0.405816 -0.792785 -0.454759
			 0.023468 -0.776745  0.629378
			 0.523719 -0.369385  0.767641
			 0.616776  0.637069 -0.462310
			 0.309954  0.665435 -0.679061
			 0.051586  0.285415 -0.957015
			 0.304701 -0.950728 -0.057206
			 0.323583 -0.472143 -0.819985
			 0.689321  0.556577 -0.463744
			 0.135632  0.013446  0.990668
			-0.216694 -0.930707  0.294667
			 0.481448  0.116989  0.868632
			 0.236016  0.246689 -0.939915
			 0.385054  0.502068 -0.774378
			-0.221726 -0.417741 -0.881096
			 0.190383  0.872415 -0.450163
			 0.327869  0.895952  0.299619
			 0.429993  0.900403 -0.066181
			 0.124996  0.029162  0.991729
			-0.293573 -0.828729  0.476469
			 0.013134  0.503125 -0.864114
			-0.369731 -0.558424 -0.742605
			 0.060264  0.398456 -0.915206
			 0.218843  0.632538 -0.742970
			 0.265062  0.471187 -0.841264
			 0.468402  0.875508 -0.118680
			 0.090689  0.163562  0.982356
			-0.375476 -0.718813  0.585086
			-0.328015 -0.618913 -0.713689
			 0.180617  0.329703 -0.926646
			 0.270767  0.300054 -0.914687
			 0.282677  0.376760 -0.882126
			 0.497933  0.808560 -0.313516
			-0.003489  0.184220  0.982879
			-0.415753 -0.663569  0.621953
			-0.266294 -0.697094 -0.665693
			-0.211365 -0.682334 -0.699818
			 0.364741  0.349271 -0.863118
			 0.304979  0.230264 -0.924103
			 0.548573  0.780106 -0.300835
			-0.108257  0.161471  0.980922
			-0.468818 -0.628185  0.620962
			-0.508898 -0.618401  0.598835
			-0.108163 -0.696213 -0.709639
			 0.452418  0.317586 -0.833341
			 0.403055  0.218452 -0.888721
			 0.536262  0.829977 -0.153500
			-0.157930  0.247385  0.955960
			-0.223692  0.346959  0.910814
			-0.577162 -0.589917  0.564696
			-0.083602 -0.741389 -0.665848
			 0.559231  0.296563 -0.774152
			 0.555447  0.317364 -0.768609
			 0.504391  0.863404 -0.011109
			 0.510232  0.859183  0.038308
			-0.322913  0.439018  0.838445
			-0.683840 -0.538323  0.492516
			-0.017068 -0.775515 -0.631099
			 0.673011  0.225451 -0.704434
			 0.691103  0.415513 -0.591376
			 0.780702  0.406449 -0.474662
			 0.444002  0.884224  0.144952
			-0.406716  0.472804  0.781689
			-0.736903 -0.547862  0.396006
			 0.139067 -0.790556 -0.596391
			 0.779834  0.228282 -0.582877
			 0.918229  0.242586 -0.313063
			 0.839245  0.522370 -0.150991
			 0.645046  0.753804  0.125283
			-0.776510  0.036175  0.629066
			-0.811594 -0.563193  0.155337
			 0.170308 -0.723850 -0.668608
			 0.991029  0.015424 -0.132757
			 0.293135 -0.695862 -0.655628
			 0.856190  0.478025  0.196040
			 0.561720  0.720382  0.406841
			-0.813755  0.396643  0.424825
			-0.864648 -0.460459 -0.200899
			-0.051392 -0.792205 -0.608087
			 0.916183 -0.352335 -0.190966
			-0.850112 -0.406948 -0.334221
			 0.851087  0.374397  0.368074
			 0.285922  0.789362  0.543282
			-0.858649  0.459636  0.226841
			-0.848622 -0.453383 -0.272551
			-0.210815 -0.827391 -0.520559
			 0.794093 -0.607503 -0.018867
			-0.942426  0.334346 -0.006780
			 0.758215  0.390969  0.521779
			 0.079795  0.859109  0.505534
			-0.832526 -0.137262 -0.536713
			-0.324146 -0.673869 -0.663950
			 0.795096 -0.459251  0.396120
			-0.178854  0.980041  0.086776
			 0.686282  0.320982  0.652677
			-0.435265  0.132347 -0.890522
			 0.384053 -0.671476 -0.633738
			 0.846848  0.521320  0.105236
			-0.087140  0.522222 -0.848346
			 0.680762  0.732147 -0.022893
			 0.486907 -0.428190  0.761298
			 0.698038  0.710164  0.091709
			 0.569214  0.789626 -0.229100
			 0.592158 -0.485905  0.642842
			-0.328477  0.585355 -0.741258
			-0.613356  0.570973 -0.545697
			 0.355977 -0.398534  0.845252
			-0.635143 -0.764250 -0.111873
			-0.751838 -0.659081 -0.018765
			 0.681991  0.658373  0.318485
			-0.131025  0.651581 -0.747178
			 0.511243  0.784575 -0.350816
			 0.707346 -0.580485  0.403360
			-0.737343  0.578082 -0.349495
			-0.694145 -0.706467  0.138086
			-0.842205 -0.175020 -0.509960
			-0.919078 -0.322631 -0.226286
			-0.979613 -0.200735 -0.007958
			 0.087070 -0.521191  0.848987
			-0.646072 -0.724489 -0.240225
			-0.619385 -0.264232 -0.739286
			-0.707396 -0.146753 -0.691415
			 0.626564  0.638037  0.447577
			-0.013204  0.705891 -0.708198
			 0.771599 -0.557763  0.305834
			 0.518404  0.744402 -0.420859
			-0.786875  0.542985 -0.293249
			-0.617751 -0.725069  0.304400
			-0.960324 -0.250992  0.121579
			-0.502497 -0.766833  0.399329
			-0.208572 -0.832152  0.513830
			-0.629777 -0.682620 -0.370689
			-0.572341 -0.359947 -0.736792
			-0.060264  0.567263 -0.821329
			 0.078190 -0.294449  0.952463
			 0.567947  0.800108  0.193038
			 0.903330 -0.408779  0.129976
			 0.606445  0.636253 -0.476872
			-0.645586  0.724268 -0.242187
			-0.957338 -0.160326  0.240415
			-0.422764 -0.768201  0.480769
			-0.564389 -0.705239 -0.429072
			-0.490920 -0.406792 -0.770401
			 0.029725  0.446010 -0.894534
			-0.547569 -0.684168 -0.481750
			-0.338806 -0.625986  0.702390
			 0.531168  0.688677  0.493543
			 0.633899 -0.769352  0.079174
			 0.293920  0.768759 -0.567998
			-0.670686  0.741713  0.006450
			-0.875829 -0.005454  0.482590
			-0.377710 -0.431477 -0.819245
			 0.138998  0.462086 -0.875874
			-0.314199 -0.454070 -0.833727
			-0.510151 -0.793388 -0.332087
			-0.089456 -0.281585  0.955357
			 0.459368  0.752850  0.471378
			-0.190917 -0.980483  0.046936
			 0.505442  0.438466 -0.743152
			-0.524104  0.818057  0.236851
			-0.801403 -0.071825  0.593796
			 0.188465  0.420606 -0.887452
			 0.343718  0.266548 -0.900450
			-0.256397 -0.464087 -0.847870
			-0.391394 -0.912428 -0.119523
			-0.134365 -0.308224  0.941777
			 0.378602  0.786739  0.487547
			-0.358744 -0.621684  0.696284
			 0.953813  0.270602 -0.130444
			 0.091388  0.928120  0.360889
			-0.367456  0.382416  0.847782
			 0.391990 -0.347865 -0.851665
			 0.944238  0.313440  0.100851
			-0.082668 -0.647913 -0.757215
			 0.328478 -0.933131 -0.146182
			 0.314727 -0.144855  0.938064
			-0.173768 -0.776918  0.605148
			 0.837719 -0.544476  0.042115
			-0.814844 -0.241452  0.527001
			-0.810469 -0.553891  0.190646
			 0.587704 -0.644037  0.489714
			-0.904495 -0.333230  0.266171
			 0.953451 -0.294098  0.066617
			 0.471791 -0.853132 -0.222661
			 0.736870  0.423666 -0.526811
			 0.656241  0.407930 -0.634777
			-0.459454 -0.386732  0.799588
			-0.971406 -0.168497  0.167270
			-0.860274  0.501441 -0.092119
			-0.069485  0.994142 -0.082788
			 0.031096  0.904700 -0.424914
			-0.512640  0.085715  0.854315
			-0.728263  0.266666 -0.631286
			-0.415900 -0.902042  0.115526
			-0.968780  0.157233 -0.191688
			 0.951803 -0.102293  0.289148
			 0.995286 -0.047794  0.084392
			-0.851831  0.471034 -0.229154
			 0.878122  0.341202 -0.335386
			 0.152340 -0.829019  0.538070
			 0.772256  0.133803  0.621062
			 0.303415  0.893733  0.330426
			 0.276326  0.821037 -0.499541
			 0.592163  0.805157 -0.032637
			 0.573947  0.817211  0.052448
			-0.458315  0.440279 -0.772076
			 0.694526 -0.221386  0.684559
			-0.683159 -0.680571 -0.264797
			 0.209675  0.860171 -0.464910
			 0.918704  0.306447  0.249145
			 0.924691  0.366685 -0.102412
			 0.757070  0.459932  0.464013
			 0.828563  0.543806  0.133261
			 0.694018  0.435959  0.572956
			 0.504633  0.862739  0.032048
			-0.370655  0.394032 -0.841043
			-0.060643 -0.862187  0.502947
			 0.794989  0.297984  0.528393
			-0.661793 -0.516587 -0.543294
			 0.661065  0.189316  0.726053
			 0.546859  0.259746  0.795913
			 0.582485  0.412567  0.700356
			 0.512311  0.832891  0.209356
			-0.266678  0.293283 -0.918078
			-0.578686 -0.559178 -0.593669
			 0.019265 -0.743810  0.668113
			-0.069835 -0.692010  0.718502
			 0.442868  0.311475  0.840745
			 0.432783  0.290148  0.853530
			 0.498297  0.802153  0.329014
			-0.183893  0.191653 -0.964081
			-0.500145 -0.655617 -0.565705
			-0.457600 -0.637458 -0.619879
			-0.159614 -0.690685  0.705320
			 0.362520  0.323982  0.873850
			 0.289218  0.196373  0.936905
			 0.478791  0.832312  0.279314
			-0.110248  0.156632 -0.981485
			-0.002787  0.199506 -0.979893
			-0.409159 -0.639855 -0.650518
			-0.230766 -0.673994  0.701769
			 0.253815  0.294725  0.921258
			 0.226682  0.262542  0.937916
			 0.460570  0.869991  0.176046
			 0.447428  0.887947  0.106574
			 0.054730  0.161040 -0.985429
			-0.352364 -0.722545 -0.594785
			-0.268513 -0.612024  0.743860
			 0.159400  0.308824  0.937667
			 0.233085  0.443890  0.865236
			 0.176797  0.579987  0.795209
			 0.398968  0.911227 -0.102417
			 0.127355  0.081623 -0.988493
			-0.288296 -0.815979 -0.501063
			-0.312884 -0.541042  0.780626
			 0.059685  0.403533  0.913016
			 0.036039  0.566579  0.823219
			 0.184122  0.810644  0.555838
			 0.332354  0.894097 -0.300218
			 0.118743 -0.009606 -0.992879
			-0.235048 -0.932494 -0.274239
			-0.230879 -0.366908  0.901151
			 0.430031  0.007478  0.902783
			 0.165266  0.653187  0.738941
			 0.227330  0.863524  0.450164
			 0.562906  0.808831  0.170087
			 0.628621 -0.568017 -0.531218
			 0.107580 -0.979462  0.170529
			-0.141713 -0.637797  0.757055
			 0.277011 -0.859976  0.428610
			 0.682889 -0.057018  0.728294
			 0.345626  0.341895  0.873871
			-0.275347 -0.553561  0.785973
			 0.968527  0.156631 -0.193446
			 0.135941 -0.396167 -0.908059
			-0.379587 -0.865278  0.327425
			 0.455728  0.769062 -0.448170
			 0.451435  0.752071 -0.480204
			 0.198267  0.424072  0.883659
			-0.335372 -0.465138  0.819251
			-0.221612 -0.245883 -0.943626
			-0.534130 -0.808154  0.248177
			 0.507573  0.725204 -0.465241
			-0.145113 -0.329953 -0.932777
			 0.148303  0.397710  0.905446
			-0.366331 -0.425544  0.827475
			-0.549016 -0.717657  0.428427
			 0.581708  0.738947 -0.339961
			-0.224732 -0.485116 -0.845079
			 0.039163  0.440770  0.896765
			-0.474658 -0.382437  0.792743
			-0.611367 -0.688790  0.389614
			 0.596719  0.723772 -0.346526
			 0.002165 -0.543377 -0.839486
			 0.003200  0.591843  0.806047
			-0.592551 -0.342774  0.728965
			-0.600015 -0.689007  0.406511
			 0.695425  0.599158 -0.396729
			 0.080501 -0.593976 -0.800445
			-0.027849  0.636489  0.770783
			-0.610729 -0.262629  0.747018
			-0.651868 -0.661455  0.370872
			 0.706652  0.685084 -0.176927
			 0.378212 -0.348561 -0.857590
			 0.005612 -0.654329 -0.756189
			-0.114844  0.598114  0.793140
			-0.697295 -0.189718  0.691222
			-0.716357 -0.685367  0.130783
			 0.730596  0.682711 -0.011595
			 0.479713 -0.434450 -0.762318
			-0.719019 -0.693865 -0.039533
			-0.316690  0.569317  0.758674
			-0.829278 -0.204368  0.520127
			 0.651720  0.738997  0.170719
			 0.625465 -0.487549 -0.609171
			-0.681542 -0.696865 -0.223338
			-0.944089 -0.230070  0.236142
			-0.660742  0.476087  0.580312
			 0.640530  0.694397  0.327925
			 0.731084 -0.539519 -0.417655
			-0.628224 -0.712979 -0.311441
			-0.979884 -0.196666  0.033908
			-0.749647  0.541258  0.380878
			 0.286663  0.852944  0.436246
			 0.716264 -0.630022 -0.300065
			 0.961974 -0.268978 -0.047508
			-0.554779 -0.731228 -0.396896
			-0.975413 -0.199473 -0.093698
			-0.787765  0.547654  0.281961
			 0.525697  0.643293  0.556612
			-0.293359 -0.788419 -0.540680
			-0.299880 -0.691451 -0.657242
			 0.776856 -0.618948  0.115746
			-0.977723 -0.077174 -0.195197
			-0.654748  0.680905  0.328138
			 0.391592  0.684661  0.614732
			-0.883113 -0.002295 -0.469154
			-0.759481  0.095372 -0.643501
			-0.334933 -0.796335 -0.503656
			 0.569194 -0.598980  0.563242
			-0.752732  0.643871 -0.137205
			 0.191390  0.864686  0.464422
			-0.528612  0.815998 -0.233913
			-0.408049  0.152012 -0.900216
			-0.105104  0.891366 -0.440930
			 0.244647 -0.645823 -0.723229
			 0.866117 -0.437745  0.241289
			 0.793927  0.584507  0.167429
			 0.218146  0.938497  0.267647
			 0.125218  0.968589 -0.214839
			-0.841750  0.484565  0.238020
			 0.087707  0.996107 -0.008822
			 0.909571 -0.076009  0.408538
			 0.034480  0.938974 -0.342255
			 0.996637  0.081924  0.001782
			-0.900791  0.394192 -0.182174
			-0.880872 -0.389762  0.268607
			-0.881217 -0.250395  0.400947
			-0.781708  0.418380  0.462484
			 0.129192  0.989069  0.071078
			 0.936703  0.190910 -0.293497
			 0.216123 -0.723792  0.655299
			 0.807765  0.230703  0.542487
			 0.418063 -0.770920  0.480526
			 0.095052  0.905117 -0.414402
			-0.696972  0.507210 -0.506920
			 0.666991 -0.726785  0.164029
			-0.692306 -0.713429  0.108309
			-0.004451 -0.968054 -0.250702
			-0.065305 -0.997734 -0.016185
			-0.345196 -0.624559  0.700546
			-0.654653  0.105198  0.748574
			-0.599960  0.495065  0.628457
			 0.852964 -0.025842 -0.521330
			 0.200783  0.613771  0.763526
			 0.477797 -0.874779 -0.080453
			-0.564846 -0.799047 -0.206091
			 0.122742 -0.688708  0.714573
			-0.673524 -0.706122 -0.218533
			 0.629481  0.190468  0.753310
			-0.320760 -0.932678  0.165000
			 0.232948  0.933565 -0.272381
			-0.491530  0.500522 -0.712654
			-0.907501 -0.029725 -0.418997
			 0.528513 -0.704501 -0.473658
			 0.682543 -0.701228  0.205948
			 0.916451 -0.233080 -0.325255
			-0.410139  0.091824 -0.907389
			-0.495602 -0.783462 -0.374920
			-0.499138  0.227299 -0.836179
			 0.007380 -0.680991  0.732254
			-0.658477  0.235624 -0.714765
			 0.483493  0.250889  0.838624
			 0.211774  0.920515 -0.328335
			-0.367668  0.454055 -0.811575
			-0.105914  0.430880 -0.896172
			-0.278374 -0.109621 -0.954197
			-0.244989  0.457919 -0.854570
			-0.374873 -0.901508 -0.216225
			 0.019303 -0.514146  0.857485
			 0.329130  0.331973  0.884006
			 0.251279  0.939614 -0.232345
			 0.220120  0.956238 -0.192761
			 0.078516  0.464922 -0.881863
			-0.109132 -0.124089 -0.986251
			-0.268487 -0.950256 -0.157886
			-0.110807 -0.545842  0.830529
			 0.182115  0.452623  0.872907
			-0.122225  0.406264  0.905545
			 0.212007  0.971870 -0.102573
			 0.283231  0.520559 -0.805480
			 0.132374 -0.088582 -0.987234
			-0.149981 -0.870508 -0.468745
			-0.277733 -0.641970  0.714660
			-0.392319 -0.644813  0.655974
			-0.195894  0.579425  0.791134
			 0.380024  0.857977 -0.345625
			 0.445170  0.489746 -0.749649
			 0.380450  0.128454 -0.915837
			 0.109325 -0.768859 -0.630003
			 0.162186 -0.862766 -0.478884
			-0.577722 -0.566556  0.587582
			-0.206777  0.784731  0.584328
			 0.519635  0.748913 -0.411228
			 0.585440  0.505580 -0.633757
			 0.595010  0.084132 -0.799303
			 0.759407 -0.168699 -0.628365
			 0.028712 -0.942275 -0.333608
			-0.781710 -0.375471  0.497947
			-0.231846  0.908285  0.348233
			 0.630453  0.721174 -0.287121
			 0.794667  0.403645 -0.453404
			 0.906173  0.336114 -0.256669
			 0.861509 -0.196962 -0.467982
			 0.029660 -0.945581 -0.324031
			-0.885230 -0.381072  0.266744
			-0.790415  0.470842  0.391857
			 0.241830  0.949242  0.201140
			 0.362063  0.868885  0.337564
			 0.713515 -0.145649  0.685334
			 0.968615 -0.224408 -0.106894
			 0.034784 -0.835139  0.548938
			-0.657234 -0.373871  0.654419
			-0.744289  0.164896  0.647181
			 0.807139  0.346471 -0.478000
			-0.383232 -0.295689 -0.875044
			-0.786611  0.264071 -0.558131
			-0.138503  0.987005 -0.081471
			 0.670904 -0.625519 -0.398262
			 0.843437 -0.121260  0.523365
			 0.056023  0.868139  0.493149
			-0.688763 -0.634566 -0.350615
			 0.410235 -0.901917 -0.135105
			-0.915873  0.398977 -0.044658
			 0.885467  0.073609  0.458835
			-0.088147  0.818091  0.568294
			-0.943237  0.330624 -0.031484
			-0.653373 -0.590299 -0.473974
			 0.485387 -0.847307 -0.215568
			 0.907663  0.174980  0.381484
			-0.269852  0.762082  0.588567
			-0.981963  0.171052  0.080554
			-0.609605 -0.659084 -0.440443
			 0.491300 -0.784968 -0.377425
			 0.925025  0.259109  0.277835
			-0.304797  0.701573  0.644123
			-0.952335  0.185306  0.242321
			-0.735926 -0.549935 -0.394949
			 0.517701 -0.722214 -0.458686
			-0.436342  0.652262  0.619806
			 0.915710  0.358129  0.182259
			-0.886268  0.172193  0.429974
			-0.874588 -0.445390 -0.191635
			 0.343693 -0.681633 -0.645950
			-0.835394  0.069529  0.545236
			-0.363841  0.567117  0.738917
			 0.952928  0.300317 -0.041678
			-0.864890 -0.501670 -0.017091
			 0.295988 -0.663157 -0.687469
			-0.839475 -0.539048  0.068623
			-0.771267  0.005272  0.636489
			-0.156521  0.551155  0.819591
			 0.925433  0.329013 -0.187947
			 0.283350 -0.559883 -0.778616
			 0.279251 -0.502192 -0.818426
			-0.788841 -0.537891  0.297326
			-0.732002 -0.050950  0.679394
			 0.338679  0.617418  0.709994
			 0.887116  0.422169 -0.186545
			 0.870979  0.219557 -0.439533
			 0.420545 -0.710248 -0.564526
			-0.205353 -0.745904  0.633606
			-0.092019 -0.126111  0.987739
			 0.932501  0.008923  0.361057
			 0.161997  0.824749 -0.541799
			 0.892456  0.347552  0.287628
			 0.858385  0.067713 -0.508517
			-0.882211 -0.134790 -0.451149
			 0.032352  0.506075 -0.861882
			-0.823510 -0.274168 -0.496651
			 0.120837  0.758900 -0.639898
			 0.886696  0.419150  0.195151
			 0.163741 -0.760217  0.628696
			 0.478111 -0.841782  0.250623
			-0.407877 -0.627844 -0.662909
			 0.126683 -0.746003  0.653782
			-0.067348 -0.725895  0.684501
			-0.723985 -0.442992 -0.528775
			 0.138832  0.698242 -0.702270
			 0.863635  0.390785  0.318469
			 0.734461  0.419176  0.533722
			-0.173271 -0.659075  0.731845
			-0.698127 -0.449345 -0.557412
			 0.169556  0.741132 -0.649595
			 0.268033  0.707363 -0.654061
			 0.604154  0.490683  0.627877
			-0.275290 -0.559890  0.781498
			-0.781232 -0.215788 -0.585757
			-0.642927 -0.197327 -0.740072
			 0.336381  0.629878 -0.700073
			 0.420862  0.664181  0.617850
			-0.472560 -0.372930  0.798505
			-0.521483 -0.450559  0.724604
			-0.470551 -0.658484 -0.587350
			 0.282120  0.332425 -0.899946
			 0.248702  0.771399  0.585739
			 0.171019  0.824789  0.538958
			-0.529088 -0.367532  0.764844
			-0.372942 -0.862569 -0.341891
			 0.407928  0.135799 -0.902858
			 0.646851 -0.035797 -0.761776
			 0.237932  0.802295  0.547459
			-0.593376 -0.232142  0.770723
			-0.314060 -0.911921 -0.264132
			-0.202893 -0.923043 -0.326844
			 0.838967 -0.077938 -0.538571
			 0.177783  0.877111  0.446171
			-0.649120 -0.305112  0.696814
			-0.760603 -0.441307  0.476163
			-0.060697 -0.974299 -0.216928
			 0.865429 -0.076697 -0.495126
			-0.127143  0.910479  0.393525
			-0.575132  0.797854  0.180699
			-0.804542 -0.469425 -0.363802
			-0.046173 -0.959600 -0.277555
			 0.919037  0.021291 -0.393596
			 0.837123 -0.496841  0.228853
			 0.076115  0.913475 -0.399712
			-0.875116  0.033360 -0.482762
			-0.063244 -0.997531  0.030518
			-0.142702 -0.822152  0.551092
			 0.958573 -0.230600  0.167214
			 0.120454  0.932274 -0.341109
			-0.998207  0.051940  0.029754
			-0.956137 -0.179141 -0.231754
			-0.133914 -0.937659  0.320721
			 0.390516 -0.000697 -0.920596
			-0.339337  0.760483 -0.553638
			-0.723364 -0.687723 -0.061504
			-0.784897 -0.379479 -0.489829
			-0.118288 -0.960958 -0.250135
			-0.554761 -0.830071 -0.056767
			 0.730613 -0.494790  0.470519
			-0.332748  0.788362 -0.517459
			-0.301287  0.861158 -0.409429
			-0.008974  0.307982 -0.951350
			 0.969470  0.242438  0.036777
			-0.383510 -0.922714 -0.038968
			 0.701286 -0.360600  0.614952
			-0.314310  0.781196 -0.539390
			 0.898061  0.401834  0.178927
			 0.679103  0.620511  0.392154
			 0.785855  0.547701  0.287152
			-0.213682 -0.968149  0.130490
			 0.659190 -0.134647  0.739824
			-0.226965  0.738147 -0.635315
			 0.569667  0.653893  0.497899
			 0.566151  0.085212  0.819885
			-0.175915 -0.953297  0.245516
			-0.068043  0.612030 -0.787902
			 0.560254  0.657247  0.504124
			 0.521064  0.054674  0.851765
			-0.306169 -0.915570  0.260754
			 0.003440  0.521509 -0.853239
			 0.560178  0.740988  0.370320
			 0.463205  0.124258  0.877497
			-0.467153 -0.788091  0.400849
			 0.139837  0.341249 -0.929513
			 0.523013  0.798269  0.298704