<?xml version="1.0"?>
<VTKFile type="PolyData" version="0.1" byte_order="LittleEndian" compressor="vtkZLibDataCompressor">
	<PolyData>
		<Piece NumberOfPoints="770" NumberOfVerts="0" NumberOfLines="0" NumberOfStrips="0" NumberOfPolys="1541">
		<PointData Normals="Normals">
		<DataArray type="Float32" Name="Normals" NumberOfComponents="3" format="ascii">
			 0.187784 -0.959825  0.208503
			 0.454080 -0.601593  0.657188
			-0.705296 -0.289579  0.647071
			 0.541867 -0.705307 -0.457081
			 0.844317 -0.527113 -0.096333
			-0.870076 -0.416338  0.263876
			-0.539532 -0.671074 -0.508493
			 0.957207 -0.289254  0.009267
			 0.464383 -0.469677  0.750834
			-0.532497 -0.230588  0.814418
			-0.944345  0.022325  0.328199
			-0.911641  0.013595  0.410762
			 0.354987 -0.532116 -0.768660
			 0.924785 -0.341033 -0.168729
			-0.994628 -0.029447  0.099234
			-0.921798 -0.229708 -0.312286
			-0.743566 -0.259897 -0.616087
			 0.960308 -0.275964 -0.040655
			 0.877485 -0.425553  0.221190
			 0.220808 -0.555992  0.801322
			-0.529845 -0.266762  0.805048
			-0.903621  0.148180  0.401885
			-0.972285  0.177921  0.151676
			-0.965146  0.230914  0.123174
			-0.904124  0.425434  0.039575
			 0.494513 -0.361083 -0.790617
			 0.897447 -0.242149 -0.368719
			 0.950925 -0.207519 -0.229517
			-0.993152  0.114626  0.022578
			-0.950886  0.308080 -0.030031
			-0.776824 -0.123170 -0.617554
			 0.955898 -0.283249 -0.077646
			 0.913249 -0.407370 -0.005157
			 0.526872 -0.612414  0.589368
			 0.145944 -0.672229  0.725816
			-0.309968 -0.373207  0.874435
			-0.796585  0.285144  0.533052
			-0.783109  0.608845  0.126684
			-0.900296  0.432925 -0.045206
			-0.889984  0.446550 -0.092317
			-0.804220  0.582570 -0.117654
			-0.692399  0.717982 -0.071320
			 0.951402 -0.150586 -0.268621
			 0.449904 -0.301936 -0.840488
			-0.898178  0.439112  0.021374
			-0.951515  0.288932  0.105538
			-0.922348  0.041435 -0.384131
			 0.961997 -0.200924 -0.184909
			 0.930618 -0.336301 -0.144401
			 0.819772 -0.549601  0.160976
			 0.381150 -0.734570  0.561366
			 0.179526 -0.739746  0.648495
			-0.245298 -0.340631  0.907634
			-0.638394  0.284215  0.715315
			-0.688633  0.674014  0.267375
			-0.582471  0.811367 -0.049110
			-0.858706  0.501326 -0.106285
			-0.814279  0.578974 -0.041706
			-0.714847  0.697299  0.052622
			-0.607562  0.791745  0.063304
			 0.949620 -0.144897 -0.277897
			 0.317225 -0.222369 -0.921911
			-0.945918  0.251231  0.205237
			-0.935292  0.312338  0.166353
			-0.951221  0.207818  0.228013
			-0.989814  0.140346  0.023914
			-0.934768  0.152072 -0.321067
			 0.955081 -0.158186 -0.250596
			 0.935354 -0.250800 -0.249424
			 0.878266 -0.460977 -0.127078
			 0.568009 -0.719879  0.398923
			 0.497001 -0.820779  0.281624
			 0.200960 -0.795010  0.572341
			-0.210528 -0.315788  0.925179
			-0.484274  0.186164  0.854881
			-0.631931  0.679706  0.372375
			-0.526955  0.849886 -0.003515
			-0.589261  0.804956  0.069401
			-0.885455  0.408032  0.222441
			-0.791819  0.496965  0.355034
			-0.686820  0.541794  0.484497
			-0.666226  0.551701  0.501767
			 0.938735 -0.225623 -0.260522
			 0.259137 -0.091971 -0.961452
			-0.935639  0.228020  0.269420
			-0.914229  0.269618  0.302475
			-0.864064  0.331173  0.379101
			-0.951339  0.222231  0.213464
			-0.925453  0.296293  0.236110
			-0.924163  0.271905 -0.268312
			 0.943015 -0.244258 -0.225967
			 0.934239 -0.182597 -0.306360
			 0.881395 -0.302804 -0.362563
			 0.743706 -0.668042  0.024937
			 0.528936 -0.779198  0.336269
			 0.517959 -0.851845  0.077968
			 0.155978 -0.836400  0.525458
			-0.285041 -0.288938  0.913929
			-0.518534  0.173824  0.837202
			-0.605585  0.722252  0.334094
			-0.526893  0.847569 -0.063330
			-0.587782  0.796767  0.140267
			-0.661618  0.540281  0.519960
			-0.792834  0.381229  0.475476
			-0.688340  0.377261  0.619566
			-0.611448  0.354058  0.707654
			-0.636053  0.374690  0.674570
			 0.910149 -0.271938 -0.312537
			 0.467887 -0.029853 -0.883284
			-0.896108  0.354693  0.266804
			-0.868944  0.386854  0.308677
			-0.816971  0.420324  0.394823
			-0.776938  0.431400  0.458543
			-0.845933  0.299135  0.441493
			-0.935435  0.274825  0.222335
			-0.879136  0.247884  0.407030
			-0.937250  0.271342  0.218944
			-0.941266  0.288303 -0.175781
			 0.894664 -0.353738 -0.272847
			 0.925946 -0.266560 -0.267525
			 0.877121 -0.193730 -0.439463
			 0.770914 -0.364677 -0.522209
			 0.667822 -0.740958 -0.070676
			 0.442730 -0.860817  0.250966
			 0.506424 -0.862234  0.009296
			 0.118743 -0.869170  0.480046
			-0.420130 -0.286849  0.860935
			-0.539222  0.125779  0.832718
			-0.593997  0.699877  0.396661
			-0.523902  0.850987 -0.036704
			-0.611769  0.783405  0.109615
			-0.675162  0.564740  0.474579
			-0.647226  0.378387  0.661756
			-0.718200  0.416095  0.557722
			-0.663428  0.347914  0.662434
			-0.649126  0.279617  0.707425
			-0.674372  0.232010  0.700995
			 0.837897 -0.269816 -0.474477
			-0.902316  0.276722 -0.330532
			 0.146457  0.098724 -0.984278
			-0.854121  0.319055  0.410709
			-0.850556  0.263426  0.455149
			-0.868473  0.201537  0.452921
			-0.879325  0.180939  0.440509
			-0.771546 -0.045840  0.634520
			-0.837193 -0.163637  0.521853
			-0.839198  0.066286  0.539771
			 0.845553 -0.345830 -0.406745
			 0.859625 -0.406270 -0.309822
			 0.864709 -0.329029 -0.379497
			 0.722029 -0.239503 -0.649086
			 0.628701 -0.360641 -0.688965
			 0.575448 -0.800285 -0.168533
			 0.372279 -0.893204  0.252180
			 0.507698 -0.861330 -0.018816
			-0.388103 -0.346604  0.853957
			 0.179078 -0.914674  0.362358
			-0.530961  0.072418  0.844296
			-0.578641  0.641480  0.503665
			-0.549638  0.833655  0.054021
			-0.645282  0.753621  0.125164
			-0.711833  0.560010  0.423890
			-0.672970  0.405236  0.618785
			-0.693273  0.187136  0.695954
			-0.862874  0.194912  0.466324
			-0.854611  0.165018  0.492350
			-0.829645  0.028641  0.557556
			-0.825312 -0.053619  0.562126
			 0.773081 -0.353664 -0.526561
			-0.823323 -0.115121  0.555776
			-0.961564  0.270052 -0.049669
			-0.764452  0.395571 -0.509054
			 0.054334  0.185694 -0.981104
			-0.805784 -0.360333  0.469971
			-0.774990 -0.453540  0.440106
			-0.857921 -0.366835  0.359727
			-0.906573 -0.237563  0.348839
			-0.697174 -0.430779  0.573043
			-0.535412 -0.745985  0.396030
			-0.344429 -0.902130  0.259867
			 0.761955 -0.438849 -0.476274
			 0.826676 -0.401703 -0.394008
			 0.811926 -0.439010 -0.384767
			 0.757182 -0.351830 -0.550355
			 0.579419 -0.164098 -0.798339
			 0.583953 -0.300283 -0.754208
			 0.587597 -0.792319 -0.164193
			 0.426009 -0.865402  0.263812
			 0.554430 -0.830789 -0.048960
			-0.474241 -0.338237  0.812829
			-0.552679  0.128050  0.823498
			 0.113090 -0.926880  0.357916
			-0.550241  0.624611  0.554163
			-0.543552  0.796786  0.263976
			-0.677506  0.715481  0.170507
			-0.769537  0.536362  0.346597
			-0.772751  0.432245  0.464780
			-0.757597  0.210283  0.617922
			-0.735820 -0.154684  0.659273
			-0.948316 -0.113807  0.296216
			-0.953962 -0.118522  0.275518
			-0.886561 -0.255417  0.385710
			-0.730211 -0.342916  0.590932
			 0.652778 -0.487029 -0.580245
			-0.730852 -0.591834  0.339983
			-0.925145 -0.166654  0.341077
			-0.837970  0.545049  0.026991
			-0.736853  0.624123 -0.259842
			-0.726153  0.661213 -0.188414
			-0.691523  0.646550 -0.322132
			-0.762051  0.640131  0.097521
			-0.694072  0.696079 -0.183678
			 0.372813  0.044984 -0.926816
			-0.248055 -0.929286  0.273670
			-0.438050 -0.828679  0.348429
			-0.739401 -0.578435  0.344527
			-0.877886 -0.369589  0.304499
			-0.465427 -0.878877  0.104654
			-0.204766 -0.972835  0.107991
			-0.198300 -0.931390  0.305270
			 0.595365 -0.623975 -0.506158
			 0.738077 -0.489412 -0.464455
			 0.805143 -0.437343 -0.400595
			 0.776758 -0.436165 -0.454320
			 0.661522 -0.267987 -0.700408
			 0.529901 -0.085977 -0.843690
			 0.574119 -0.299677 -0.761959
			 0.608182 -0.767176 -0.203855
			 0.417956 -0.888656  0.188690
			 0.430296 -0.888100 -0.161633
			-0.461495 -0.337097  0.820602
			-0.605286  0.086013  0.791347
			-0.642007  0.621411  0.449082
			 0.043524 -0.974385  0.220634
			-0.614787  0.734152  0.288197
			-0.727043  0.623721  0.287021
			-0.801647  0.474815  0.363197
			-0.819567  0.397298  0.412872
			-0.834253  0.319493  0.449384
			-0.792579  0.082679  0.604138
			-0.640200 -0.246714  0.727514
			-0.960237 -0.194305  0.200473
			-0.917398 -0.272278  0.290252
			-0.670656 -0.499991  0.547933
			-0.578980 -0.458966  0.673893
			 0.568094 -0.415285 -0.710498
			-0.974660 -0.124517  0.185830
			-0.661873 -0.749469  0.014850
			-0.545108  0.837060  0.046772
			-0.616298  0.786539  0.039173
			-0.559257  0.816329  0.144358
			-0.586049  0.717697  0.376108
			-0.626937  0.563712  0.537754
			-0.673800  0.446130  0.589034
			-0.565249  0.788824 -0.241352
			 0.402353  0.044656 -0.914395
			-0.295819 -0.794297  0.530644
			-0.605204 -0.598662  0.524721
			-0.781236 -0.470296  0.410478
			-0.920401 -0.236949  0.310993
			-0.888187 -0.456071  0.055884
			-0.831870 -0.391426  0.393417
			-0.751145 -0.149964  0.642879
			 0.462064 -0.572554 -0.677258
			 0.469410 -0.696594 -0.542596
			 0.693112 -0.544730 -0.472086
			 0.761959 -0.465264 -0.450498
			 0.709036 -0.410022 -0.573715
			 0.594556 -0.246032 -0.765487
			 0.481982 -0.080408 -0.872484
			 0.510286 -0.258358 -0.820280
			 0.578267 -0.760545 -0.295258
			 0.366647 -0.928591  0.057349
			 0.390671 -0.878646 -0.274513
			-0.442937 -0.336810  0.830883
			-0.693920  0.112338  0.711235
			-0.755286  0.543455  0.366333
			-0.732582  0.662862  0.154720
			 0.238962 -0.928406  0.284534
			-0.778250  0.566695  0.270526
			-0.798658  0.484459  0.356994
			-0.783930  0.472059  0.403253
			-0.775189  0.316583  0.546679
			-0.793750  0.217191  0.568145
			-0.772061 -0.031419  0.634772
			-0.694244 -0.325380  0.641991
			-0.923643 -0.181258  0.337680
			-0.662995 -0.444790  0.602162
			-0.472700 -0.552473  0.686533
			-0.609745 -0.452671  0.650614
			 0.575662 -0.283444 -0.766990
			-0.967179  0.232040  0.103548
			-0.844898  0.529390 -0.076766
			-0.417910  0.907051  0.051090
			-0.517776  0.854823 -0.034430
			-0.375597  0.911142  0.169548
			-0.454161  0.814486  0.361041
			-0.587683  0.674163  0.447363
			-0.516324  0.570294  0.638886
			-0.593118  0.409699  0.693078
			-0.644981  0.563151  0.516586
			-0.589792  0.807550  0.002952
			 0.201665  0.723215 -0.660523
			-0.813318  0.157589  0.560072
			-0.842536 -0.119553  0.525205
			-0.874574 -0.258279  0.410381
			-0.898964 -0.168827  0.404180
			-0.798504  0.589487  0.122047
			-0.687415  0.696684  0.205166
			-0.441957  0.895500  0.052477
			 0.609511 -0.322415 -0.724254
			 0.379630 -0.666864 -0.641228
			 0.408353 -0.749384 -0.521221
			 0.647726 -0.582067 -0.491578
			 0.680831 -0.481228 -0.552167
			 0.640981 -0.391349 -0.660295
			 0.556312 -0.229956 -0.798522
			 0.459018 -0.058819 -0.886478
			 0.542872 -0.235472 -0.806128
			 0.576892 -0.766777 -0.281512
			 0.413660 -0.902210 -0.122079
			 0.438243 -0.845490 -0.305106
			-0.249267 -0.506964  0.825138
			-0.715360  0.005543  0.698734
			-0.828114  0.428117  0.361861
			-0.785614  0.613012  0.083831
			-0.793784  0.602782  0.080999
			 0.152032 -0.931692  0.329903
			 0.303846 -0.925469 -0.226243
			-0.820958  0.524504  0.225661
			-0.802860  0.544420  0.242944
			-0.840843  0.406678  0.357207
			-0.859980  0.134748  0.492217
			-0.866029  0.083341  0.492999
			-0.846652 -0.100264  0.522615
			-0.773791 -0.169952  0.610216
			-0.647452 -0.392557  0.653226
			-0.290185 -0.420170  0.859796
			-0.316462 -0.170381  0.933179
			-0.581023 -0.011395  0.813807
			 0.694403  0.560109 -0.451755
			-0.362209  0.892973 -0.267216
			-0.355552  0.915172 -0.189848
			-0.169380  0.985170 -0.027385
			 0.122707  0.956633 -0.264189
			-0.114990  0.978086  0.173568
			-0.288774  0.865760  0.408740
			-0.403606  0.715674  0.570011
			-0.543282  0.302660  0.783098
			-0.464196  0.473301  0.748671
			-0.604736  0.329227  0.725192
			-0.289116  0.644322  0.707998
			-0.182839  0.979483  0.084758
			-0.595007  0.745823  0.299525
			-0.869378  0.338753  0.359762
			-0.897351 -0.210234  0.388023
			-0.749469 -0.398059  0.529004
			-0.325203  0.944694 -0.042379
			 0.057575  0.963213 -0.262500
			 0.155364  0.980190 -0.122835
			 0.904702  0.425931  0.009827
			 0.637852 -0.387401 -0.665632
			 0.370678 -0.745432 -0.554012
			 0.404070 -0.757395 -0.512913
			 0.617864 -0.574089 -0.537277
			 0.650493 -0.450258 -0.611658
			 0.600077 -0.364015 -0.712321
			 0.517427 -0.203643 -0.831143
			 0.448392 -0.045481 -0.892679
			 0.570958 -0.325740 -0.753592
			 0.472192 -0.840489 -0.265730
			-0.332888 -0.677387  0.655997
			-0.623222 -0.228029  0.748062
			-0.829915  0.296903  0.472323
			-0.799064  0.548203  0.246922
			-0.851150  0.514796  0.102612
			-0.853981  0.520220  0.009344
			 0.104072 -0.993786 -0.039484
			-0.119200 -0.944346  0.306598
			 0.155156 -0.954831 -0.253426
			-0.842339  0.537976  0.032368
			-0.907911  0.409075  0.091405
			-0.950989  0.222847  0.214383
			-0.946210  0.135304  0.293905
			-0.926987  0.231173  0.295389
			-0.869940  0.301238  0.390462
			-0.692107  0.524481  0.495891
			 0.122112 -0.540835  0.832217
			 0.421976  0.497725  0.757764
			 0.076983  0.757396  0.648402
			-0.302779  0.820202  0.485380
			 0.327345  0.829647 -0.452252
			 0.371714  0.841701 -0.391623
			 0.265503  0.963239 -0.040968
			 0.597880  0.763985 -0.242624
			 0.185188  0.955340  0.230283
			-0.173242  0.820963  0.544065
			-0.380167  0.635159  0.672344
			-0.147741  0.508251  0.848442
			-0.054354  0.415544  0.907947
			 0.059299  0.564526  0.823282
			 0.416277  0.766190 -0.489558
			-0.887991 -0.150999  0.434363
			-0.653003  0.661983  0.367921
			 0.143266  0.907892 -0.393963
			-0.645413 -0.524817  0.554986
			 0.497404  0.752291 -0.432026
			 0.642472  0.687994 -0.337483
			 0.753300  0.417406 -0.508244
			 0.960609  0.269567  0.067558
			 0.547911 -0.445571 -0.707998
			 0.243795 -0.773448 -0.585100
			 0.341670 -0.768106 -0.541549
			 0.564728 -0.574685 -0.592300
			 0.609220 -0.431369 -0.665411
			 0.526478 -0.335770 -0.781076
			 0.447182 -0.207769 -0.869977
			 0.436881 -0.134585 -0.889394
			 0.504427 -0.600731 -0.620222
			-0.320840 -0.811242  0.488823
			-0.571543 -0.256272  0.779528
			-0.357340 -0.570254  0.739674
			-0.785291  0.243557  0.569208
			-0.816620  0.415866  0.400235
			-0.736071  0.596601  0.319791
			-0.004574 -0.980675 -0.195593
			-0.257479 -0.960797  0.102826
			 0.190039 -0.834375 -0.517401
			-0.730485  0.607783  0.311435
			-0.771001  0.564667  0.294464
			-0.727929  0.606601  0.319616
			-0.676228  0.640554  0.363877
			-0.639462  0.708210  0.299212
			-0.513913  0.813953  0.270876
			-0.574792  0.807157  0.134580
			 0.722448  0.560110  0.405396
			 0.735009 -0.619208  0.276304
			 0.054670 -0.797123  0.601337
			 0.981981 -0.082801  0.169875
			 0.240289  0.948659  0.205685
			-0.051878  0.979012  0.197089
			 0.735218  0.581537 -0.348238
			 0.790559  0.481248 -0.378705
			 0.444732  0.893483  0.062460
			 0.563334  0.819821 -0.102706
			 0.020359  0.894971  0.445659
			-0.314615  0.701074  0.639931
			 0.076963  0.730513  0.678548
			 0.979960  0.193892 -0.045652
			 0.960291  0.172777 -0.219064
			 0.734352  0.295529 -0.611056
			 0.698687  0.220347 -0.680649
			 0.729394  0.221193 -0.647347
			-0.939498 -0.050171  0.338862
			-0.689921  0.637949  0.342096
			 0.232295  0.892494 -0.386643
			 0.564273  0.017974 -0.825392
			-0.611872 -0.688476  0.389377
			 0.770577  0.446426 -0.454879
			 0.745319  0.478862 -0.463886
			 0.673904  0.499268 -0.544596
			 0.413379 -0.532020 -0.738967
			 0.199091 -0.806761 -0.556327
			 0.278108 -0.786597 -0.551290
			 0.455290 -0.605592 -0.652663
			 0.485265 -0.434987 -0.758488
			 0.394731 -0.332688 -0.856450
			 0.348648 -0.256773 -0.901395
			 0.385359 -0.414135 -0.824615
			 0.208204 -0.305843  0.929038
			-0.012059 -0.637486  0.770367
			-0.244781 -0.916446  0.316558
			 0.015069 -0.153431  0.988044
			 0.023899  0.007255  0.999688
			 0.086053  0.189312  0.978139
			 0.026673  0.375540  0.926422
			-0.080654  0.510270  0.856224
			 0.065814 -0.864628 -0.498084
			-0.189776 -0.966975 -0.170132
			 0.230909 -0.633081 -0.738844
			 0.056928  0.313469  0.947890
			-0.281338  0.688492  0.668452
			 0.140980  0.415559  0.898574
			-0.179700  0.505684  0.843796
			-0.484398  0.395293  0.780450
			-0.402018  0.890338  0.213729
			-0.440398  0.230925  0.867597
			-0.475357  0.875726  0.084493
			 0.019999  0.997826  0.062801
			 0.645358  0.747560  0.157059
			 0.654195 -0.738081 -0.165119
			 0.853227 -0.057430 -0.518368
			 0.188572 -0.946632  0.261399
			 0.834280  0.147728 -0.531181
			 0.903154  0.390443 -0.178516
			 0.610032  0.791129 -0.044461
			 0.585785  0.803900 -0.102961
			 0.111772  0.956208  0.270505
			 0.144498  0.949047  0.280056
			-0.259284  0.787722  0.558807
			-0.095898  0.775816  0.623629
			 0.954830  0.269043 -0.126160
			 0.438744 -0.650930 -0.619511
			 0.835997  0.277538 -0.473373
			 0.725578  0.519646 -0.451115
			 0.682027 -0.338256 -0.648400
			-0.947393 -0.094303  0.305866
			-0.619816  0.728426  0.291929
			 0.120120  0.961757 -0.246162
			 0.435825  0.056497 -0.898256
			 0.458855 -0.566029 -0.684882
			-0.252616 -0.937400  0.239722
			 0.531738  0.817995 -0.219405
			 0.490455  0.831856 -0.259748
			 0.436443  0.856009 -0.277068
			 0.180039 -0.830342 -0.527369
			 0.256741 -0.790740 -0.555711
			 0.387005 -0.593984 -0.705273
			 0.357913 -0.413723 -0.837097
			 0.293566 -0.336514 -0.894750
			 0.294557 -0.365768 -0.882865
			 0.194829 -0.668131  0.718083
			 0.602815 -0.465713  0.647862
			 0.033496 -0.998656  0.039560
			 0.662359 -0.578015  0.476634
			 0.869385 -0.445612  0.213542
			 0.761828 -0.609430  0.219574
			 0.858101 -0.215381  0.466126
			 0.200011 -0.674406 -0.710755
			 0.109573 -0.872359 -0.476427
			 0.199081 -0.492430 -0.847278
			 0.928681 -0.069568  0.364297
			 0.932868 -0.081589  0.350858
			 0.736977 -0.399333  0.545342
			-0.439414  0.894000  0.087628
			 0.136526  0.641340  0.755012
			 0.676075 -0.463511  0.572782
			-0.445895  0.890461  0.090869
			 0.101745  0.480476  0.871086
			-0.242566  0.935638  0.256404
			-0.262238  0.964940 -0.011074
			 0.255028  0.961165  0.105460
			 0.430388 -0.879487 -0.203147
			 0.346053 -0.936206  0.061373
			 0.707507  0.668756 -0.228472
			 0.109530  0.929085  0.353277
			 0.089232  0.968399  0.232896
			-0.179226  0.874047  0.451574
			-0.102934  0.881860  0.460138
			 0.069529  0.778976  0.623188
			 0.958967  0.225508  0.171838
			 0.443688 -0.715201 -0.540026
			 0.295078  0.920794 -0.255083
			-0.702469 -0.425866  0.570242
			-0.583741  0.732734  0.349781
			 0.029999  0.973644 -0.226094
			 0.222971  0.165850 -0.960613
			 0.226007 -0.664031 -0.712730
			 0.212744 -0.953925 -0.211583
			 0.144825 -0.950517  0.274850
			 0.084688  0.989409  0.117888
			 0.004638  0.996354  0.085195
			-0.176171  0.978948 -0.103080
			 0.174508 -0.847096 -0.501972
			 0.209888 -0.773014 -0.598662
			 0.235180 -0.573297 -0.784870
			 0.224011 -0.428603 -0.875282
			 0.142038 -0.360970 -0.921697
			 0.274123 -0.926516 -0.257729
			 0.448893 -0.805838 -0.386161
			 0.598718 -0.404909 -0.691075
			 0.448678 -0.604927 -0.657839
			 0.773508 -0.190017 -0.604632
			 0.252191 -0.543157 -0.800862
			 0.227850 -0.712510 -0.663637
			 0.197857 -0.414698 -0.888188
			 0.834732 -0.030392 -0.549817
			 0.759475 -0.313917 -0.569784
			 0.762129 -0.550576 -0.340625
			 0.873521 -0.445191 -0.196890
			 0.666403 -0.359884  0.652986
			-0.510931  0.859143  0.028702
			-0.269636  0.932928  0.238626
			-0.062385  0.929403  0.363755
			 0.251639  0.474007  0.843798
			-0.242541  0.967869  0.066358
			 0.282265 -0.953619  0.104585
			-0.053479  0.912612  0.405315
			-0.136433  0.931032  0.338474
			 0.491455  0.708327  0.506701
			 0.431596  0.873430  0.225488
			 0.982152 -0.165375  0.089597
			 0.483353 -0.761070 -0.432599
			-0.363849  0.927202 -0.088941
			-0.275502 -0.541219  0.794469
			-0.431131  0.641209  0.634805
			-0.012063  0.943259 -0.331838
			 0.067144  0.109577 -0.991708
			 0.027794 -0.739819 -0.672232
			 0.016371 -0.982305 -0.186572
			 0.063491 -0.984338  0.164460
			 0.227752 -0.903407  0.363297
			-0.235146  0.952450  0.193768
			-0.362084  0.931856  0.023220
			-0.328386  0.944538  0.003253
			 0.150758 -0.831215 -0.535120
			 0.091018 -0.716362 -0.691767
			 0.095909 -0.592116 -0.800125
			 0.115920 -0.439333 -0.890814
			 0.339992 -0.511588 -0.789103
			 0.416204 -0.292900 -0.860804
			 0.383534 -0.346886 -0.855904
			 0.565189 -0.182074 -0.804618
			 0.351435 -0.379283 -0.855943
			 0.269711 -0.443778 -0.854586
			 0.584841 -0.657227 -0.475409
			 0.556674 -0.510989 -0.654984
			 0.904050 -0.426078  0.033936
			 0.991709 -0.124008 -0.033697
			 0.742128 -0.619150 -0.256708
			 0.732031 -0.005640  0.681248
			-0.379214  0.925204 -0.013925
			 0.139076  0.950972  0.276244
			 0.192399  0.845677  0.497807
			 0.347979  0.560117  0.751784
			 0.025302  0.994126  0.105227
			-0.280406  0.947296  0.154926
			 0.906772 -0.235859 -0.349478
			 0.241878  0.628994 -0.738825
			 0.371081 -0.773527 -0.513766
			-0.054197  0.996932  0.056480
			-0.127243 -0.560635  0.818229
			-0.355653  0.545377  0.758996
			 0.085154  0.995234 -0.047524
			 0.313066  0.453576 -0.834421
			 0.126563 -0.811118 -0.571024
			 0.136827 -0.985747  0.097886
			-0.075550 -0.953802  0.290781
			 0.078311 -0.889616  0.449946
			-0.382557  0.921618  0.065347
			-0.373305  0.922646  0.096789
			 0.087354  0.947029  0.309038
			 0.112624 -0.748612 -0.653373
			 0.015068 -0.675824 -0.736909
			 0.027847 -0.574520 -0.818017
			 0.441447 -0.487994 -0.752985
			 0.392728 -0.419828 -0.818236
			 0.463116 -0.651660 -0.600718
			 0.247402 -0.588740 -0.769531
			 0.485791 -0.836463 -0.253648
			 0.384900 -0.834454 -0.394384
			 0.577582 -0.811457 -0.089090
			 0.202069 -0.943940  0.261045
			 0.359729 -0.541368  0.759945
			 0.395042  0.387634  0.832875
			 0.699795  0.641226  0.314827
			 0.829140  0.232730  0.508294
			 0.447148  0.651019  0.613379
			 0.475797  0.549483  0.686794
			-0.396962  0.830399 -0.390972
			-0.468037  0.882350  0.048994
			 0.105411 -0.659661 -0.744134
			-0.188160 -0.164375 -0.968286
			-0.063113  0.631222  0.773030
			-0.003793 -0.669389  0.742902
			 0.298867  0.953338 -0.042712
			 0.772699  0.558447 -0.301782
			 0.462622 -0.735385 -0.495166
			 0.162529 -0.975503  0.148254
			-0.042072 -0.882962  0.467555
			-0.326413  0.872496  0.363601
			-0.621607  0.742060  0.250901
			 0.022211  0.818021  0.574759
			-0.064193 -0.691552 -0.719469
			-0.020626 -0.670645 -0.741492
			 0.260881 -0.708596 -0.655616
			 0.220009 -0.851896 -0.475258
			 0.219234 -0.924851 -0.310786
			 0.255815 -0.896427 -0.361907
			-0.262386 -0.860342  0.436996
			-0.082966 -0.726145  0.682518
			-0.116758 -0.970771 -0.209692
			 0.019691  0.061892  0.997889
			-0.028449  0.660220  0.750533
			-0.713100  0.604347 -0.355322
			-0.275222  0.066773 -0.959059
			 0.106122 -0.725052 -0.680469
			-0.098769 -0.725399 -0.681206
			 0.161694 -0.491054 -0.855991
			 0.038161  0.432834  0.900666
			 0.169389  0.923253  0.344835
			-0.027545 -0.279289  0.959812
			 0.668464  0.635910  0.385714
			 0.855563 -0.339657  0.390699
			 0.145804 -0.907419  0.394121
			-0.049999 -0.927840  0.369613
			-0.206383  0.836254  0.508020
			-0.285410  0.946072  0.153258
			-0.356345  0.833309 -0.422628
			-0.194223 -0.886805 -0.419350
			-0.264748 -0.856357  0.443353
			-0.140816 -0.772314  0.619437
			 0.265646 -0.165244  0.949803
			 0.561394  0.669526  0.486386
			 0.459651  0.861424  0.216033
			-0.091442  0.158138 -0.983174
			 0.093739 -0.438805 -0.893679
			-0.053828 -0.472117  0.879891
			 0.067333 -0.019759  0.997535
			 0.534073  0.443175  0.719973
			 0.186207 -0.886607  0.423386
			 0.334615  0.927321 -0.167658
			 0.702135  0.596104 -0.389444
			 0.488962  0.455671 -0.743828
			 0.041246 -0.879319 -0.474443
			-0.699610 -0.671261  0.244858
			-0.729368 -0.370753  0.574948
			-0.483471 -0.080196  0.871679
			 0.327747  0.679224  0.656686
			 0.644137  0.755118  0.122006
			 0.692501  0.709325 -0.131529
			 0.467792 -0.164917 -0.868316
			 0.680011  0.610470 -0.406094
			 0.623416  0.221444 -0.749877
			 0.274317 -0.367189 -0.888776
			-0.331508 -0.804961 -0.492078
			-0.784086 -0.590315  0.191668
			-0.834007 -0.188929  0.518399
			-0.600933  0.244376  0.761026
			 0.163518  0.761651  0.627017
			 0.593332  0.802896  0.057582
			 0.712528  0.649421 -0.265625
			 0.754263  0.545280 -0.365729
			 0.726285  0.316837 -0.610020
			 0.310865 -0.385985 -0.868549
			-0.353550 -0.800970 -0.483165
			-0.729878 -0.677631  0.089971
			-0.752718 -0.362394  0.549624
			-0.397705  0.162162  0.903070
			 0.290551  0.691946  0.660902
			 0.609043  0.755232  0.242264
			 0.729308  0.661478 -0.174806
			 0.731373  0.532705 -0.425816
			 0.659930  0.280851 -0.696861
			 0.172383 -0.424704 -0.888769
			-0.368572 -0.823558 -0.431169
			-0.579438 -0.814169  0.037154
			-0.684127 -0.508955  0.522431
			-0.098890 -0.072837  0.992429
			 0.495447  0.396339  0.772948
			 0.745841  0.493423  0.447498
			 0.883108  0.456833  0.106883
			 0.894596  0.383314 -0.229713
			 0.819319  0.023305 -0.572864
			 0.265611 -0.703802 -0.658873
			-0.423363 -0.858535 -0.289277
			-0.413021 -0.898144  0.150834
			-0.458603 -0.696411  0.551992
			 0.121561 -0.358398  0.925621
			 0.515999  0.167778  0.839997
			 0.852752  0.090079  0.514490
			 0.960956  0.014255  0.276334
			 0.997505  0.060450  0.036462
			 0.943355 -0.281636 -0.175390
			 0.543757 -0.791162 -0.279983
			-0.163329 -0.982284 -0.091882
			 0.163935 -0.904707  0.393231
			 0.774369 -0.505129  0.381048
			 0.861161 -0.483373  0.157331
			 0.471189 -0.881886 -0.016043
		</DataArray>
	</PointData>
	<Points>
		<DataArray type="Float32" NumberOfComponents="3" format="ascii">
			-0.113457 -0.098076  0.085749
			-0.107641 -0.087932  0.098843
			-0.110043 -0.086582  0.098526
			-0.113103 -0.094324  0.072421
			-0.110682 -0.095424  0.084384
			-0.114905 -0.097668  0.084826
			-0.114425 -0.095873  0.074025
			-0.107253 -0.084826  0.096480
			-0.105773 -0.079028  0.102421
			-0.108050 -0.077704  0.102327
			-0.110806 -0.083057  0.096521
			-0.108651 -0.075648  0.102044
			-0.112100 -0.089375  0.069700
			-0.108549 -0.091689  0.081225
			-0.115837 -0.091482  0.082687
			-0.114720 -0.092373  0.072065
			-0.115017 -0.088874  0.070106
			-0.106183 -0.079807  0.094583
			-0.104239 -0.076203  0.102291
			-0.100155 -0.060432  0.110442
			-0.104036 -0.058267  0.110711
			-0.104806 -0.056388  0.109920
			-0.111577 -0.077314  0.093105
			-0.109565 -0.068710  0.098002
			-0.104437 -0.054213  0.108019
			-0.112008 -0.083001  0.066763
			-0.112054 -0.086188  0.068231
			-0.108000 -0.086627  0.077610
			-0.115723 -0.084796  0.077509
			-0.113833 -0.076064  0.073399
			-0.113932 -0.080564  0.065781
			-0.104582 -0.075579  0.093178
			-0.102933 -0.072125  0.100154
			-0.098062 -0.060771  0.109625
			-0.095691 -0.049063  0.118421
			-0.097064 -0.047965  0.120108
			-0.097780 -0.045880  0.119596
			-0.097018 -0.044328  0.117428
			-0.109363 -0.067945  0.088910
			-0.107868 -0.063170  0.094713
			-0.101193 -0.050479  0.105995
			-0.095226 -0.042150  0.114804
			-0.107958 -0.079700  0.075629
			-0.111767 -0.075724  0.063596
			-0.106294 -0.064398  0.086381
			-0.111849 -0.070686  0.069955
			-0.112942 -0.072191  0.063222
			-0.103058 -0.069469  0.090619
			-0.101802 -0.068983  0.099409
			-0.096457 -0.059971  0.108061
			-0.093125 -0.047825  0.119264
			-0.086217 -0.041501  0.125350
			-0.087766 -0.040454  0.125991
			-0.088535 -0.038575  0.125201
			-0.087676 -0.036165  0.123929
			-0.085685 -0.033773  0.120662
			-0.104359 -0.059150  0.092869
			-0.098489 -0.047769  0.103254
			-0.092147 -0.039798  0.110698
			-0.082937 -0.033117  0.117649
			-0.107577 -0.071225  0.073102
			-0.109659 -0.055092  0.058045
			-0.104836 -0.059112  0.084891
			-0.102478 -0.054774  0.092189
			-0.110031 -0.064124  0.069013
			-0.112157 -0.066114  0.062175
			-0.109060 -0.047421  0.057864
			-0.102809 -0.061888  0.088337
			-0.100571 -0.064089  0.097134
			-0.096067 -0.058508  0.106908
			-0.089850 -0.048855  0.116048
			-0.085368 -0.041358  0.123518
			-0.076532 -0.035380  0.129720
			-0.078309 -0.034277  0.129914
			-0.079515 -0.031660  0.130010
			-0.079178 -0.030102  0.129466
			-0.077547 -0.028548  0.125996
			-0.074488 -0.027705  0.122559
			-0.097187 -0.045346  0.102330
			-0.090896 -0.038018  0.109149
			-0.081803 -0.031170  0.115331
			-0.073679 -0.025811  0.120119
			-0.105483 -0.051653  0.068564
			-0.103237 -0.029267  0.055218
			-0.102199 -0.041501  0.081236
			-0.098852 -0.036700  0.089800
			-0.093062 -0.030494  0.098428
			-0.107458 -0.045074  0.066993
			-0.102133 -0.025195  0.063400
			-0.104243 -0.027780  0.056768
			-0.100635 -0.046108  0.084114
			-0.099705 -0.055102  0.094147
			-0.095547 -0.056014  0.104971
			-0.087850 -0.048244  0.114540
			-0.081800 -0.040733  0.120364
			-0.075977 -0.034799  0.126952
			-0.074074 -0.034260  0.130882
			-0.075148 -0.032254  0.131402