<?xml version="1.0"?>
<VTKFile type="PolyData" version="0.1" byte_order="LittleEndian" compressor="vtkZLibDataCompressor">
	<PolyData>
		<Piece NumberOfPoints="2627" NumberOfVerts="0" NumberOfLines="0" NumberOfStrips="0" NumberOfPolys="5250">
		<PointData Normals="Normals">
		<DataArray type="Float32" Name="Normals" NumberOfComponents="3" format="ascii">
			-0.339263  0.181305  0.923054
			-0.311974  0.135146  0.940430
			-0.340633  0.189181  0.920967
			-0.317225  0.072521  0.945573
			-0.373626 -0.006477  0.927557
			-0.408884  0.221558  0.885283
			-0.205017  0.063479  0.976698
			-0.300766  0.182081  0.936155
			-0.299059  0.026128  0.953877
			-0.296524  0.139483  0.944785
			-0.311605  0.172353  0.934450
			-0.337114  0.116229  0.934262
			-0.389777  0.050843  0.919505
			-0.482192 -0.008225  0.876027
			-0.341607  0.052233  0.938390
			-0.366794  0.091609  0.925781
			-0.458365 -0.018837  0.888565
			-0.289081  0.006580  0.957282
			-0.158881  0.014977  0.987184
			-0.237342  0.012369  0.971348
			-0.275933  0.223599  0.934807
			-0.269457  0.041179  0.962132
			-0.101620  0.131303  0.986120
			-0.340546  0.300298  0.890982
			-0.277513  0.084572  0.956992
			-0.305115  0.385030  0.871009
			-0.286367  0.125369  0.949882
			-0.275937  0.173561  0.945376
			-0.379526  0.287048  0.879525
			-0.417007  0.369692  0.830321
			-0.403608 -0.041452  0.913993
			-0.401301  0.083446  0.912137
			-0.501711  0.010298  0.864974
			-0.353849 -0.108681  0.928967
			-0.353922 -0.081438  0.931723
			-0.414511 -0.111903  0.903138
			-0.316974 -0.054662  0.946858
			-0.406991 -0.061558  0.911355
			-0.431423  0.263023  0.862956
			-0.464792  0.075659  0.882181
			-0.227916  0.002164  0.973678
			-0.400815  0.056716  0.914402
			-0.380770 -0.054477  0.923064
			-0.189832 -0.093394  0.977364
			-0.383904  0.102301  0.917688
			-0.381665  0.304146  0.872827
			-0.311758 -0.115531  0.943111
			-0.260761  0.202252  0.943980
			-0.314218  0.454467  0.833503
			-0.465110  0.478704  0.744657
			-0.284086  0.083357  0.955168
			-0.346507  0.440615  0.828125
			-0.257843  0.156917  0.953359
			-0.153742  0.202272  0.967186
			-0.272739  0.185615  0.944013
			-0.443107  0.308107  0.841859
			-0.410673  0.171620  0.895486
			-0.277851  0.226234  0.933604
			-0.352389  0.107834  0.929620
			-0.358223  0.140266  0.923039
			-0.611514  0.044536  0.789979
			-0.399154  0.101244  0.911277
			-0.475808 -0.153994  0.865963
			-0.535708 -0.062066  0.842119
			-0.505056 -0.048601  0.861717
			-0.453856 -0.024509  0.890738
			-0.274572 -0.189926  0.942623
			-0.369343 -0.016227  0.929152
			-0.430777 -0.056691  0.900676
			-0.471506  0.234859  0.850014
			-0.491408  0.429788  0.757496
			-0.487855  0.467752  0.737025
			-0.575962  0.477749  0.663343
			-0.513733  0.086844  0.853544
			-0.527945  0.268528  0.805709
			-0.200507 -0.002244  0.979690
			-0.108336 -0.146595  0.983246
			-0.358591  0.002360  0.933492
			-0.412772  0.053909  0.909238
			-0.590544  0.200364  0.781736
			-0.259155 -0.241550  0.935143
			-0.079483 -0.274893  0.958184
			-0.309019 -0.146576  0.939693
			-0.532033  0.177032  0.828010
			-0.291229  0.003844  0.956646
			-0.442115  0.312311  0.840831
			-0.571028  0.476953  0.668164
			-0.489382  0.564195  0.664973
			-0.219812  0.184652  0.957907
			-0.139645  0.093968  0.985733
			 0.041984  0.446696  0.893700
			 0.036985  0.106737  0.993599
			-0.133903  0.431885  0.891934
			-0.264154  0.101263  0.959150
			-0.275337  0.361440  0.890814
			-0.439484  0.369173  0.818880
			-0.535582  0.209276  0.818141
			-0.445460  0.221352  0.867507
			-0.463378  0.188814  0.865812
			-0.414951  0.279210  0.865943
			-0.398884  0.186774  0.897779
			-0.269738  0.159883  0.949568
			-0.155844  0.194584  0.968426
			-0.214038  0.249554  0.944410
			-0.266642  0.274758  0.923802
			-0.296722  0.185527  0.936769
			-0.525630 -0.218632  0.822139
			-0.411312 -0.199888  0.889307
			-0.555530 -0.227806  0.799682
			-0.490818 -0.056500  0.869428
			-0.565373 -0.025095  0.824454
			-0.531343 -0.257499  0.807075
			-0.596705  0.313511  0.738684
			-0.529476  0.451237  0.718360
			-0.448818  0.590334  0.670871
			-0.649712  0.463853  0.602258
			-0.599475  0.442480  0.666964
			-0.645482  0.347359  0.680217
			-0.673471  0.177446  0.717600
			-0.146579 -0.134297  0.980040
			-0.089603 -0.184721  0.978698
			-0.009193 -0.211153  0.977410
			-0.287630 -0.198282  0.936992
			-0.388243 -0.015995  0.921418
			-0.265123 -0.310248  0.912938
			-0.148275 -0.386399  0.910335
			 0.095010 -0.234594  0.967439
			 0.008139 -0.416945  0.908895
			 0.134746 -0.268944  0.953684
			-0.227488 -0.243323  0.942891
			-0.248995 -0.003068  0.968500
			-0.157732 -0.171061  0.972553
			-0.241329 -0.075057  0.967537
			-0.531623  0.255251  0.807604
			-0.543624  0.230446  0.807074
			-0.451110  0.287504  0.844891
			-0.527699  0.363996  0.767490
			-0.515131  0.404225  0.755805
			 0.114897  0.353078  0.928512
			 0.001743  0.649681  0.760205
			-0.100910 -0.091919  0.990640
			 0.101182 -0.134338  0.985756
			-0.243334  0.429300  0.869764
			-0.208975  0.641306  0.738279
			-0.222535 -0.093806  0.970401
			-0.411603  0.237483  0.879878
			-0.307008  0.408145  0.859746
			-0.498255  0.369731  0.784246
			-0.488082  0.383530  0.784016
			-0.659314  0.476378  0.581695
			-0.593754  0.316013  0.739994
			-0.554413  0.457365  0.695301
			-0.515718  0.458037  0.724042
			-0.514720  0.532041  0.672306
			-0.512996  0.571282  0.640680
			-0.410455  0.353013  0.840778
			-0.221878  0.196000  0.955172
			-0.167321  0.222528  0.960461
			-0.290834  0.212783  0.932813
			-0.279964  0.315840  0.906568
			-0.245628  0.412088  0.877411
			-0.273079  0.326463  0.904903
			-0.162540  0.056987  0.985055
			-0.181635  0.213719  0.959861
			-0.327701 -0.172032  0.928987
			-0.552289 -0.124311  0.824333
			-0.505591 -0.176054  0.844620
			-0.575441 -0.118654  0.809190
			-0.605541 -0.287353  0.742124
			-0.398660 -0.201300  0.894734
			-0.538603 -0.179137  0.823296
			-0.641713 -0.302224  0.704887
			-0.490466 -0.188868  0.850748
			-0.644204  0.139210  0.752078
			-0.678173  0.154090  0.718566
			-0.515849 -0.172412  0.839150
			-0.359041 -0.292421  0.886329
			-0.467604 -0.280271  0.838328
			-0.503700  0.355380  0.787396
			-0.629322  0.425042  0.650610
			-0.456706  0.253234  0.852814
			-0.597688  0.281587  0.750651
			-0.492217  0.498685  0.713467
			 0.947253  0.179247  0.265672
			 0.464421  0.407751  0.786163
			-0.703479  0.507036  0.498028
			-0.751347  0.460251  0.472913
			-0.606053  0.269550  0.748360
			-0.625030  0.340764  0.702295
			-0.769962  0.338611  0.540834
			-0.039457 -0.173908  0.983971
			-0.091636 -0.203122  0.974856
			-0.351624 -0.260515  0.899162
			-0.149262 -0.212809  0.965626
			 0.182865 -0.226247  0.956751
			 0.056113 -0.213999  0.975221
			 0.141146 -0.188255  0.971925
			-0.184939 -0.398339  0.898401
			-0.095302 -0.550258  0.829538
			 0.065257 -0.376692  0.924037
			 0.207638 -0.329054  0.921200
			 0.107322 -0.261932  0.959100
			 0.118235 -0.229971  0.965989
			-0.009255 -0.060976  0.998096
			-0.099321 -0.121366  0.987626
			 0.050394 -0.291164  0.955345
			-0.121801 -0.432249  0.893491
			-0.606870  0.399772  0.686943
			-0.540780  0.415651  0.731295
			-0.616401  0.488165  0.617854
			-0.503748  0.502353  0.702766
			-0.557714  0.665699  0.495782
			-0.110313  0.024335  0.993599
			-0.245348  0.582017  0.775281
			-0.053855 -0.241774  0.968837
			-0.161086 -0.258684  0.952436
			-0.478537  0.375259  0.793840
			-0.206580 -0.156091  0.965899
			-0.409429  0.090022  0.907890
			-0.313516 -0.180913  0.932190
			-0.338693  0.017166  0.940740
			-0.146343 -0.167151  0.975010
			-0.498593  0.337153  0.798582
			-0.407769  0.203979  0.890010
			-0.495822  0.277049  0.823045
			-0.299263  0.392593  0.869662
			-0.468854  0.429658  0.771732
			-0.451068  0.365161  0.814368
			-0.445475  0.257837  0.857363
			-0.268774  0.254776  0.928897
			-0.594824  0.779738  0.195430
			-0.650449  0.598150  0.468115
			-0.576217  0.761213  0.297539
			-0.570566  0.639912  0.514750
			-0.552976  0.753796  0.354978
			-0.515348  0.749574  0.415397
			-0.564006  0.763386  0.314863
			-0.573058  0.776030  0.263404
			-0.478843  0.655098  0.584428
			-0.389178  0.608729  0.691368
			-0.271020  0.395811  0.877429
			-0.191851  0.294969  0.936048
			-0.316394  0.373908  0.871830
			-0.300380  0.468952  0.830576
			-0.178882  0.157578  0.971170
			-0.330014  0.223519  0.917131
			-0.072707  0.252090  0.964969
			 0.035438  0.179554  0.983110
			 0.197690  0.082250  0.976808
			-0.526142 -0.361291  0.769833
			-0.541309 -0.105965  0.834120
			-0.513091 -0.434568  0.740195
			-0.673493 -0.182621  0.716280
			-0.660574  0.071282  0.747370
			-0.460041 -0.311390  0.831504
			-0.648259 -0.087232  0.756407
			-0.463635 -0.147586  0.873648
			-0.694699  0.433397  0.574073
			-0.739370  0.329688  0.587059
			-0.825264  0.079417  0.559135
			-0.686481  0.455793  0.566565
			-0.467184 -0.273019  0.840952
			-0.325977 -0.282184  0.902281
			-0.525452 -0.091476  0.845891
			-0.670254  0.040682  0.741016
			-0.551069  0.592748  0.587345
			-0.604396  0.368754  0.706205
			-0.644633  0.559607  0.520853
			-0.583482  0.354610  0.730617
			-0.559296  0.789389  0.253087
			-0.596147  0.342288  0.726256
			-0.680754  0.369000  0.632782
			 0.751556  0.296945  0.589056
			-0.614858  0.358912  0.702233
			-0.416958  0.372249  0.829202
			-0.646323  0.459488  0.609210
			-0.738293  0.408656  0.536586
			-0.722816  0.649189  0.236836
			-0.693005  0.650101  0.311629
			-0.803598  0.458745  0.379186
			-0.784220  0.314452  0.534900
			-0.841274  0.251069  0.478772
			-0.692726  0.405079  0.596693
			-0.684513  0.374965  0.625174
			-0.652677  0.512403  0.558083
			-0.649173  0.384393  0.656366
			-0.718704  0.556129  0.417354
			-0.117421 -0.153383  0.981166
			 0.002574 -0.282103  0.959381
			 0.093316 -0.170354  0.980954
			-0.130334 -0.171670  0.976495
			-0.289314 -0.214688  0.932849
			-0.153930 -0.296731  0.942473
			-0.321018 -0.221581  0.920787
			-0.135342 -0.313022  0.940053
			 0.130089 -0.321766  0.937840
			-0.067978 -0.628246  0.775039
			 0.092621 -0.509816  0.855283
			-0.026314 -0.679562  0.733146
			 0.160617 -0.316223  0.934990
			 0.156282 -0.357505  0.920742
			 0.199702 -0.289317  0.936170
			 0.127138 -0.439041  0.889426
			 0.186287 -0.472374  0.861487
			 0.146024 -0.258909  0.954800
			 0.207749 -0.088496  0.974171
			 0.071185 -0.515767  0.853767
			-0.744183  0.341200  0.574260
			-0.654438  0.688940  0.311566
			-0.693726  0.472060  0.543970
			-0.563558  0.716569  0.411013
			-0.533670  0.832964  0.146178
			-0.500324  0.086092  0.861548
			-0.472045 -0.073450  0.878509
			-0.414551  0.036776  0.909283
			-0.386817  0.008307  0.922119
			-0.183720 -0.101331  0.977742
			 0.055476 -0.209261  0.976285
			 0.056159 -0.195087  0.979177
			-0.434583  0.138451  0.889926
			-0.154090 -0.094656  0.983512
			-0.213543  0.025001  0.976614
			 0.069215 -0.163116  0.984176
			-0.324136  0.438040  0.838485
			-0.353374  0.340606  0.871272
			-0.430007  0.451396  0.781880
			-0.242260  0.126192  0.961970
			-0.494933  0.867311 -0.053045
			-0.506157  0.862224  0.019349
			-0.504074  0.854658  0.124378
			-0.561019  0.827740  0.010224
			-0.551442  0.825558  0.119861
			-0.456086  0.779878  0.428691
			-0.469557  0.660130  0.586298
			-0.521233  0.779028  0.348470
			-0.308378  0.524598  0.793536
			-0.420957  0.509485  0.750480
			-0.440130  0.540966  0.716688
			-0.046438  0.223031  0.973705
			-0.178804  0.042883  0.982950
			-0.069095  0.149825  0.986295
			 0.204379  0.196127  0.959043
			 0.072882  0.224288  0.971794
			 0.143343  0.194596  0.970353
			 0.463356  0.016940  0.886011
			 0.304975  0.137873  0.942327
			 0.315169 -0.037918  0.948278
			 0.430279  0.177732  0.885026
			-0.469851 -0.243530  0.848489
			-0.572356 -0.563044  0.596147
			-0.585195 -0.626218  0.515168
			-0.587315 -0.461357  0.664990
			-0.457162 -0.287063  0.841783
			-0.659570  0.056386  0.749525
			-0.637144 -0.287057  0.715294
			-0.541856 -0.580923  0.607388
			-0.504668 -0.284455  0.815105
			-0.850023 -0.157077  0.502780
			-0.741791 -0.270321  0.613737
			-0.863853 -0.045829  0.501655
			-0.779657  0.475630  0.407322
			 0.078989  0.707737  0.702047
			-0.401626  0.665566  0.629061
			-0.885444  0.300620  0.354425
			-0.955371  0.068726  0.287304
			-0.945997 -0.093868  0.310287
			-0.599675  0.587748  0.543086
			-0.684361 -0.363867  0.631863
			-0.605040 -0.419832  0.676512
			-0.518550 -0.343454  0.783036
			-0.710605 -0.080225  0.699003
			-0.698206  0.050415  0.714119
			-0.568599  0.741518  0.356155
			-0.771960  0.495778  0.397848
			-0.603897  0.567307  0.559885
			-0.610236  0.781516  0.129790
			-0.475111  0.878725 -0.045960
			-0.472999  0.871510 -0.129390
			-0.636166  0.674541  0.374549
			-0.712467  0.539386  0.448836
			-0.710184  0.316447  0.628888
			 0.382331  0.537327  0.751733
			 0.752190  0.494999  0.434955
			-0.792666  0.567536  0.222673
			-0.792389  0.335466  0.509491
			-0.833039  0.549489  0.064090
			-0.866839  0.397691  0.300718
			-0.874495  0.220001  0.432271
			-0.813711  0.517323  0.265050
			-0.862991  0.226798  0.451452
			-0.742417  0.626218  0.238049
			-0.637099  0.739769  0.216441
			-0.579672  0.803367 -0.136315
			 0.089287 -0.354480  0.930791
			-0.022755 -0.404029  0.914463
			 0.091919 -0.564409  0.820362
			 0.094401 -0.533270  0.840661
			-0.142952 -0.429868  0.891503
			-0.121805 -0.370662  0.920746
			-0.128537 -0.520327  0.844238
			-0.075459 -0.612904  0.786546
			-0.437414 -0.202369  0.876194
			-0.249842 -0.364762  0.896955
			-0.173153 -0.331430  0.927455
			-0.068606 -0.492001  0.867887
			-0.101690 -0.542472  0.833896
			-0.033869 -0.575152  0.817345
			 0.158530 -0.521213  0.838573
			 0.133989 -0.622909  0.770734
			 0.185713 -0.644767  0.741476
			 0.029505 -0.686694  0.726347
			 0.163070 -0.391275  0.905711
			 0.075439 -0.567793  0.819707
			 0.131484 -0.321915  0.937594
			 0.205229 -0.606557  0.768095
			 0.191946 -0.431256  0.881575
			 0.220076 -0.521699  0.824255
			-0.004609 -0.586747  0.809758
			 0.371066 -0.394242  0.840763
			 0.159591 -0.540117  0.826320
			 0.230943 -0.373287  0.898511
			 0.192605 -0.617692  0.762470
			 0.210795 -0.720601  0.660529
			 0.260814 -0.738801  0.621409
			 0.308874 -0.152568  0.938786
			 0.161271 -0.386560  0.908054
			 0.263572 -0.250446  0.931562
			 0.077741 -0.547488  0.833194
			-0.527030  0.848162  0.053488
			-0.545957  0.837682 -0.014833
			 0.054503 -0.067727  0.996214
			 0.297862 -0.201487  0.933103
			 0.302092 -0.204112  0.931171
			 0.102542 -0.079998  0.991507
			 0.121933  0.048294  0.991363
			-0.430219  0.533412  0.728274
			-0.266881  0.420225  0.867286
			-0.013126  0.278262  0.960415
			-0.192719  0.590602  0.783613
			 0.038213  0.092353  0.994993
			-0.537250  0.842006 -0.048867
			-0.570414  0.813670 -0.112110
			-0.592070  0.805832  0.009323
			-0.563278  0.818278  0.114625
			-0.664845  0.740582  0.097561
			-0.555371  0.792964  0.250540
			-0.536287  0.647650  0.541245
			-0.437886  0.694733  0.570615
			-0.375752  0.727473  0.574103
			-0.430098  0.678571  0.595447
			-0.357325  0.835375  0.417693
			 0.214827  0.137815  0.966880
			 0.477864  0.249205  0.842344
			 0.423090  0.142132  0.894871
			 0.513898  0.124310  0.848796
			 0.497346 -0.140297  0.856133
			 0.621436 -0.011299  0.783383
			 0.684447 -0.143897  0.714721
			 0.616470  0.198406  0.761971
			 0.690757 -0.005458  0.723066
			-0.556690 -0.174441  0.812198
			-0.499994 -0.656894  0.564355
			-0.658688 -0.588560  0.468750
			-0.542970 -0.713939  0.442126
			-0.697044 -0.486738  0.526513
			-0.687677 -0.427183  0.587039
			-0.593118 -0.374810  0.712551
			-0.648105 -0.300661  0.699688
			-0.761821 -0.169780  0.625143
			-0.713907 -0.524252  0.464216
			-0.921050 -0.309126  0.236872
			-0.935723 -0.187605  0.298708
			-0.719005  0.528957  0.450817
			-0.859066  0.480436  0.176597
			-0.556436  0.577310  0.597572
			-0.942233  0.310750  0.125023
			-0.988939  0.113205  0.095830
			-0.973713 -0.164533  0.157516
			-0.944585 -0.320760  0.069806
			-0.773521 -0.518778  0.364052
			-0.726548 -0.531201  0.435836
			-0.755169 -0.361482  0.546855
			-0.822152 -0.222717  0.523893
			-0.588217  0.754263  0.291699
			-0.475688  0.842354 -0.253299
			-0.580860  0.813005  0.040302
			-0.516100  0.804979 -0.292661
			-0.570717  0.818906 -0.060625
			-0.649551  0.759614  0.032704
			-0.746544  0.644004  0.167124
			-0.786179  0.317461  0.530228
			-0.859286  0.461248  0.221084
			-0.864392  0.494105 -0.093205
			-0.921652  0.325376  0.211397
			-0.921236  0.287097  0.262487
			-0.897910  0.423144  0.121271
			-0.711323  0.694070 -0.110847
			-0.798185  0.600970 -0.041659
			-0.495641  0.845151 -0.200149
			-0.451457  0.815226 -0.362758
			-0.383274  0.803127 -0.456166
			-0.035585 -0.648993  0.759961
			 0.089958 -0.822527  0.561567
			 0.192158 -0.729115  0.656862
			 0.164245 -0.722543  0.671532
			-0.037286 -0.785364  0.617910
			 0.071304 -0.821810  0.565283
			-0.184075 -0.560450  0.807473
			-0.393400 -0.393539  0.830881
			-0.535049 -0.252205  0.806297
			-0.156700 -0.505112  0.848709
			-0.149702 -0.646559  0.748031
			-0.063834 -0.535136  0.842351
			 0.020313 -0.748053  0.663328
			 0.076735 -0.703228  0.706812
			 0.053786 -0.770768  0.634842
			 0.190692 -0.841480  0.505517
			 0.195248 -0.785914  0.586700
			 0.183603 -0.855357  0.484411
			 0.016266 -0.640779  0.767553
			 0.214709 -0.558933  0.800933
			 0.273559 -0.714575  0.643854
			 0.286855 -0.870079  0.400844
			 0.210515 -0.778851  0.590825
			 0.180017 -0.629661  0.755726
			 0.091374 -0.690982  0.717074
			 0.269213 -0.690645  0.671218
			 0.414364 -0.432862  0.800583
			 0.506702 -0.522693  0.685599
			 0.509659 -0.472534  0.718998
			 0.337441 -0.592864  0.731195
			 0.270244 -0.906610  0.324077
			 0.216303 -0.837438  0.501907
			 0.225922 -0.900005  0.372759
			 0.466123 -0.187724  0.864574
			 0.412547 -0.245991  0.877094
			 0.194559 -0.503531  0.841786
			 0.357238 -0.369188  0.857952
			 0.262083  0.021653  0.964802
			 0.353006 -0.044497  0.934562
			 0.716863 -0.193312  0.669879
			 0.388909 -0.284689  0.876186
			 0.524950 -0.273852  0.805874
			 0.604162 -0.274223  0.748191
			 0.581451 -0.147602  0.800080
			 0.398673  0.047238  0.915876
			-0.286908  0.524948  0.801320
			-0.464273  0.396209  0.792129
			-0.565751  0.516808  0.642522
			-0.604809  0.586952  0.538231
			-0.057590  0.486681  0.871680
			 0.209416  0.220776  0.952577
			 0.130213  0.408018  0.903640
			-0.246369  0.598622  0.762203
			 0.050190  0.521193  0.851962
			-0.065781  0.580825  0.811366
			-0.155418  0.590372  0.792026
			-0.616476  0.784592 -0.066123
			-0.662914  0.722614 -0.195893
			-0.410061  0.898942  0.154124
			 0.480337  0.862828  0.157493
			-0.732307  0.639289  0.234599
			-0.774288  0.609182  0.171393
			-0.648814  0.744209  0.158722
			-0.648166  0.712092  0.269826
			-0.748322  0.574190  0.332144
			-0.750994  0.660230  0.010230
			-0.771218  0.635480  0.037256
			-0.510258  0.799288  0.317452
			-0.441694  0.813325  0.378694
			-0.587682  0.720411  0.368292
			 0.746161  0.556333  0.365702
			 0.434728  0.787052  0.437676
			 0.751069  0.644688  0.142383
			 0.646178  0.332629  0.686885
			 0.661827  0.249103  0.707060
			 0.632099  0.038655  0.773923
			 0.693572 -0.190183  0.694830
			 0.821129 -0.144956  0.552027
			 0.742639  0.067670  0.666264
			-0.591382 -0.275803  0.757760
			-0.530116 -0.383831  0.756076
			-0.650884 -0.510147  0.562228
			-0.532214 -0.585359  0.611640
			-0.742769 -0.631868  0.221443
			-0.807085 -0.461684  0.368053
			-0.607910 -0.652571  0.452323
			-0.671779 -0.675540  0.303906
			-0.669940 -0.684560  0.287329
			-0.790315 -0.466551  0.397157
			-0.759935 -0.455539  0.463663
			-0.760717 -0.390180  0.518719
			-0.742565 -0.544700  0.389742
			-0.656202 -0.520714  0.546129
			-0.834356 -0.425451  0.350488
			-0.703795 -0.656580  0.271246
			-0.952132 -0.305680 -0.002131
			-0.923807 -0.381189 -0.035718
			-0.873940 -0.466764  0.135497
			-0.813020  0.453182  0.365548
			-0.854401  0.502910  0.130695
			-0.870799  0.455585 -0.184804
			-0.922266  0.384822 -0.036559
			-0.983840  0.172434 -0.048223
			-0.990236 -0.134049  0.038265
			-0.928808 -0.370405 -0.010811
			-0.925810 -0.376750  0.030580
			-0.815491 -0.573964  0.074428
			-0.827355 -0.527153  0.193892
			-0.759665 -0.627430  0.171002
			-0.814045 -0.473085  0.336929
			-0.401559  0.802069 -0.442081
			-0.442235  0.787807 -0.428706
			-0.679933  0.701475 -0.213598
			-0.629398  0.717576 -0.298233
			-0.471257  0.810562 -0.347716
			-0.831319  0.555595 -0.014907
			-0.940631  0.311599  0.134610
			-0.826825  0.543660 -0.144200
			-0.879847  0.429591  0.203276
			-0.927070  0.232267  0.294266
			-0.861734  0.504314 -0.055507
			-0.757078  0.625155 -0.189774
			-0.504472  0.775573 -0.379467
			-0.478099  0.715762 -0.509025
			-0.305990  0.760530 -0.572682
			-0.345784  0.779427 -0.522424
			 0.169820 -0.916587  0.361979
			 0.170632 -0.908950  0.380387
			 0.200601 -0.871521  0.447449
			 0.133284 -0.918603  0.372028
			-0.216941 -0.663773  0.715780
			-0.048247 -0.783836  0.619090
			-0.013609 -0.833934  0.551696
			-0.424051 -0.543694  0.724278
			-0.045199 -0.714495  0.698179
			 0.013620 -0.844043  0.536102
			 0.181970 -0.878889  0.440955
			 0.111493 -0.895047  0.431810
			 0.104390 -0.869771  0.482287
			 0.185531 -0.945883  0.266240
			 0.195052 -0.962847  0.186763
			 0.314026 -0.544391  0.777834
			 0.394370 -0.840222  0.372154
			 0.403960 -0.765417  0.500952
			 0.294720 -0.949377  0.108738
			 0.283346 -0.632404  0.720958
			 0.530781 -0.442683  0.722706
			 0.550388 -0.450850  0.702715
			 0.185821 -0.775817  0.602975
			 0.364013 -0.789024  0.494909
			 0.472364 -0.627762  0.618698
			 0.543786 -0.472420  0.693625
			 0.532190 -0.703815  0.470550
			 0.606059 -0.460464  0.648587
			 0.613371 -0.588491  0.526739
			 0.613000 -0.587146  0.528669
			 0.290218 -0.954091  0.074058
			 0.656470 -0.170193  0.734902
			 0.627418 -0.208932  0.750129
			 0.571306 -0.283499  0.770219
			 0.508708 -0.373566  0.775670
			 0.514389 -0.060974  0.855387
			 0.425591  0.088370  0.900590
			 0.658255 -0.050813  0.751078
			 0.920371 -0.315954  0.230413
			 0.762942 -0.286067  0.579729
			 0.852691 -0.336338  0.399743
			 0.944737 -0.233691  0.229913
			 0.887759 -0.069224  0.455073
			 0.819939 -0.305684  0.484001
			 0.422730 -0.143625  0.894802
			 0.723578 -0.321910  0.610580
			 0.813823 -0.386603  0.433856
			-0.095451  0.370319  0.923987
			-0.192708  0.502574  0.842783
			-0.646373  0.433237  0.628098
			-0.405597  0.336080  0.850024
			-0.744322  0.448441  0.494858
			 0.358538  0.674415  0.645457
			 0.400943  0.226001  0.887788
			 0.276265  0.417264  0.865776
			 0.135666  0.514795  0.846511
			 0.283024  0.435748  0.854412
			-0.162356  0.555575  0.815461
			-0.079405  0.484559  0.871147
			 0.397888  0.889020 -0.226558
			-0.243448  0.932648 -0.266273
			-0.745427  0.648624 -0.153706
			 0.439330  0.872547  0.213660
			-0.844476  0.496459  0.200971
			-0.835189  0.548339  0.042228
			-0.643969  0.736604  0.206685
			-0.683425  0.641705  0.348059
			-0.751771  0.548507  0.366034
			-0.750950  0.475276  0.458463
			-0.554373  0.605731  0.570754
			-0.846014  0.468532  0.254437
			-0.793265  0.603202 -0.082934
			 0.728156  0.461611  0.506659
			 0.754229  0.281304  0.593301
			 0.741226  0.509055  0.437546
			 0.782136  0.331721  0.527470
			 0.872771  0.112831  0.474911
			 0.772499 -0.153957  0.616070
			 0.876634  0.015911  0.480894
			 0.841250 -0.100925  0.531143
			 0.905738 -0.052872  0.420528
			-0.488762 -0.639470  0.593456
			-0.361277 -0.753208  0.549688
			-0.686361 -0.664710  0.295073
			-0.502197 -0.690024  0.521216
			-0.502106 -0.808470  0.307027
			-0.771766 -0.601125  0.207430
			-0.767551 -0.621024  0.158728
			-0.717000 -0.633989  0.289774
			-0.827719 -0.490929  0.271790
			-0.782613 -0.534177  0.319644
			-0.845655 -0.432618  0.312584
			-0.583125 -0.794345  0.170240
			-0.552037 -0.785031  0.281035
			-0.557749 -0.830002 -0.003468
			-0.558472 -0.821464  0.115347
			-0.777872 -0.561617  0.281961
			-0.747759 -0.629933  0.209859
			-0.755559 -0.605365  0.250327
			-0.596579 -0.802481 -0.010810
			-0.585237 -0.800408  0.129783
			-0.491905 -0.825909  0.275506
			-0.889075 -0.414607 -0.194026
			-0.889073 -0.457740 -0.004934
			-0.887364  0.453148 -0.085096
			-0.887716  0.414475 -0.200426
			-0.788452  0.330611 -0.518690
			-0.918006  0.312405 -0.244269
			-0.758497  0.586275 -0.284541
			-0.941376  0.303971 -0.146329
			-0.996521 -0.077297 -0.031162
			-0.965088 -0.253162 -0.067182
			-0.908564 -0.416595 -0.030991
			-0.886030 -0.455969 -0.083921
			-0.857251 -0.493316  0.147515
			-0.868482 -0.471250  0.153826
			-0.854182 -0.510753  0.097493
			-0.550066  0.802594 -0.230803
			-0.697581  0.596499 -0.396949
			-0.755047  0.597652 -0.269662
			-0.338350  0.787696 -0.514834
			-0.844126  0.518974 -0.134604
			-0.956271  0.208063  0.205560
			-0.993026  0.106202  0.051192
			-0.860129  0.405321 -0.309665
			-0.845837  0.521154  0.113836
			-0.742814  0.668744 -0.031774
			-0.948440  0.268164  0.168966
			-0.442609  0.798446 -0.408145
			-0.318464  0.732232 -0.602011
			-0.652706  0.577872 -0.489938
			-0.434454  0.693151 -0.575145
			-0.568900  0.617041 -0.543704
			-0.254872  0.780187 -0.571269
			 0.171074 -0.966824  0.189698
			 0.194042 -0.957425  0.213742
			-0.178748 -0.821156  0.541989
			 0.015419 -0.900643  0.434285
			 0.150806 -0.952499  0.264580
			 0.133942 -0.864982  0.483597
			 0.130156 -0.934603  0.331024
			 0.224109 -0.953777  0.200213
			 0.188178 -0.982104 -0.007778
			 0.668485 -0.310136  0.675976
			 0.369034 -0.911390  0.182159
			 0.416222 -0.902730  0.108801
			 0.378456 -0.633412  0.674952
			 0.702261 -0.231412  0.673260
			 0.872895 -0.197358  0.446210
			 0.785126 -0.370711  0.496135
			 0.547014 -0.690277  0.473596
			 0.305641 -0.813736  0.494386
			 0.731417 -0.502019  0.461526
			 0.509966 -0.810011  0.289510
			 0.574232 -0.738755  0.352843
			 0.737694 -0.477243  0.477543
			 0.563836 -0.773197  0.290268
			 0.264326 -0.962283  0.064370
			 0.370801 -0.925027  0.082653
			 0.733282 -0.205220  0.648215
			 0.649091 -0.016785  0.760526
			 0.725081 -0.262767  0.636562
			 0.905845 -0.317852 -0.280026
			 0.901181 -0.376659 -0.214480
			 0.964798 -0.253290 -0.070770
			 0.932009 -0.362328 -0.008804
			 0.908089 -0.321701  0.268109
			 0.991902 -0.083238  0.095925
			 0.947806 -0.059355  0.313273
			 0.741219 -0.455506  0.493061
			 0.826840 -0.535367  0.172386
			 0.728258 -0.596912  0.336655
			-0.199433  0.256587  0.945722
			 0.800460  0.189718  0.568569
			 0.616811  0.255266  0.744569
			-0.193801  0.284134  0.938994
			-0.156105  0.383155  0.910397
			-0.000513  0.434085  0.900872
			-0.735698  0.513397  0.441783
			-0.566481  0.539117  0.623259
			-0.210788  0.280301  0.936483
			-0.385399  0.443831  0.809000
			 0.535247  0.247956  0.807483
			 0.314123  0.414323  0.854203
			 0.005914  0.381028  0.924544
			-0.145474  0.280777  0.948684
			-0.224232  0.299359  0.927418
			 0.952915  0.285602 -0.101903
			-0.864308  0.454513 -0.215384
			-0.741922  0.633413 -0.219864
			-0.570159  0.772933 -0.278376
			-0.811369  0.503048 -0.297697
			-0.796890  0.568788 -0.203586
			-0.878923  0.442068  0.179084
			-0.881019  0.469004  0.061980
			-0.812250  0.575009  0.098059
			-0.818917  0.573136 -0.029837
			-0.863275  0.504733  0.001016
			-0.832902  0.553420 -0.000904
			-0.793481  0.523354  0.310625
			-0.637923  0.653241  0.407835
			-0.553237  0.747581  0.367493
			-0.657616  0.638762  0.399406
			-0.805134  0.549605  0.222920
			-0.873719  0.468663  0.130269
			-0.887815  0.449707 -0.097713
			 0.756918  0.587179  0.286874
			 0.830772  0.417304  0.368341
			 0.838910  0.418789  0.347629
			 0.897612  0.212324  0.386279
			 0.792838  0.571628  0.211304
			 0.950400  0.233834  0.205089
			 0.864889 -0.138155  0.482576
			 0.953420  0.183244  0.239607
			 0.926310  0.032854  0.375327
			 0.874789 -0.124110  0.468338
			 0.892193 -0.089271  0.442745
			-0.253003 -0.931486  0.261388
			-0.165825 -0.905067  0.391607
			-0.465563 -0.877263 -0.116877
			-0.710838 -0.701225  0.054701
			-0.483514 -0.873877  0.050517
			-0.771072 -0.629089  0.098461
			-0.434149 -0.896203 -0.091298
			-0.457255 -0.887935 -0.049896
			-0.747163 -0.646544 -0.154044
			-0.603493 -0.746669 -0.279790
			-0.394144 -0.860615 -0.322478
			-0.353632 -0.915048 -0.193987
			-0.564959 -0.814354 -0.132845
			-0.571553 -0.813544 -0.107116
			-0.361958 -0.868187 -0.339466
			-0.365519 -0.883657 -0.292481
			-0.376805 -0.921297 -0.096069
			-0.281033 -0.959697 -0.001248
			-0.940124 -0.330740 -0.082322
			-0.912876 -0.394611 -0.104592
			-0.877373 -0.473838  0.075457
			-0.846763  0.259688 -0.464278
			-0.520076  0.672838 -0.526127
			-0.797862 -0.034639 -0.601844
			-0.566191  0.261317 -0.781755
			-0.428565  0.887793 -0.167796
			-0.825564  0.553993 -0.107410