<?xml version="1.0"?>
<VTKFile type="PolyData" version="0.1" byte_order="LittleEndian" compressor="vtkZLibDataCompressor">
	<PolyData>
		<Piece NumberOfPoints="76" NumberOfVerts="0" NumberOfLines="0" NumberOfStrips="0" NumberOfPolys="148">
		<PointData Normals="Normals">
		<DataArray type="Float32" Name="Normals" NumberOfComponents="3" format="ascii">
			 0.993452 -0.076257  0.085079
			 0.773586  0.621459  0.123912
			 0.782337 -0.130674  0.608993
			 0.665987 -0.293810  0.685665
			 0.433803  0.489824 -0.756232
			 0.831468 -0.538250 -0.137649
			 0.323808 -0.065828 -0.943830
			 0.441926 -0.290312  0.848776
			 0.638121  0.190355  0.746034
			 0.467242  0.800123  0.376149
			-0.153155  0.455794 -0.876810
			 0.121669  0.800685 -0.586601
			 0.555348 -0.642069  0.528523
			 0.176828 -0.697916  0.694007
			 0.015399 -0.428370 -0.903472
			 0.177830 -0.902657 -0.391901
			-0.190351 -0.049779 -0.980453
			 0.325339  0.173217  0.929597
			 0.187992 -0.624477  0.758081
			-0.299437 -0.693563  0.655216
			-0.022898 -0.526725  0.849727
			 0.305052  0.910520  0.279099
			 0.135623  0.347888 -0.927674
			 0.351321  0.732382 -0.583259
			-0.304734 -0.827668 -0.471278
			-0.283426 -0.323856 -0.902655
			 0.209265 -0.010519 -0.977802
			-0.495592 -0.709420 -0.501110
			 0.412334  0.327313  0.850204
			-0.459049 -0.728409  0.508621
			 0.612378  0.020082  0.790310
			-0.237697 -0.920064  0.311421
			 0.150099 -0.958008  0.244316
			 0.488868  0.872351  0.003277
			 0.370283  0.744858  0.555047
			 0.536876  0.323756 -0.779068
			 0.523046  0.069661 -0.849453
			 0.897919  0.361842 -0.250624
			 0.107221 -0.611315 -0.784090
			-0.397149 -0.915501  0.064276
			 0.511842  0.601171  0.613686
			 0.412602 -0.257355  0.873801
			 0.392641  0.386388  0.834588
			 0.436758  0.553986  0.708761
			 0.201557 -0.344317  0.916963
			-0.308564 -0.509812  0.803044
			-0.459606 -0.812394 -0.358856
			-0.101038 -0.614653 -0.782300
			-0.665276 -0.719491  0.199350
			-0.405449 -0.764146  0.501690
			 0.767336  0.543033  0.341044
			 0.865029  0.067824 -0.497116
			 0.704508 -0.497771 -0.505858
			 0.961190  0.074264 -0.265706
			 0.933410 -0.034612 -0.357138
			 0.982889  0.170942  0.068614
			 0.194533 -0.827412 -0.526827
			-0.268003  0.219505  0.938079
			-0.627347  0.376955  0.681426
			-0.107150  0.703522  0.702550
			 0.345948  0.622742  0.701792
			-0.849420 -0.028422  0.526952
			-0.944277  0.026845 -0.328054
			-0.922367 -0.376566  0.086237
			 0.473080  0.030941 -0.880476
			 0.687910 -0.120742 -0.715682
			 0.464980  0.118514 -0.877353
			 0.374317  0.925175 -0.062757
			-0.863298  0.036336  0.503385
			-0.532921  0.718577  0.446813
			-0.961399  0.139141  0.237384
			-0.364241  0.801340  0.474534
			-0.935555  0.334013 -0.114768
			-0.426305  0.412116 -0.805248
			-0.312469  0.929033 -0.198145
			-0.696461  0.695607  0.176274
		</DataArray>
	</PointData>
	<Points>
		<DataArray type="Float32" NumberOfComponents="3" format="ascii">
			 0.013153 -0.027423  0.011730
			 0.011978 -0.024048  0.013129
			 0.011837 -0.027606  0.013920
			 0.011282 -0.030205  0.013014
			 0.012284 -0.025571  0.010450
			 0.011997 -0.031455  0.011629
			 0.011636 -0.028957  0.009720
			 0.009949 -0.027268  0.015843
			 0.010017 -0.024562  0.016094
			 0.009850 -0.023029  0.015227
			 0.009619 -0.026446  0.010750
			 0.007890 -0.023343  0.012944
			 0.010573 -0.032806  0.012931
			 0.008639 -0.032783  0.013619
			 0.010124 -0.031797  0.010261
			 0.009014 -0.033568  0.011510
			 0.006671 -0.029148  0.010929
			 0.007088 -0.024189  0.017411
			 0.003617 -0.027265  0.017143
			 0.006625 -0.032062  0.014172
			 0.006034 -0.029231  0.015393
			 0.008497 -0.022631  0.015673
			 0.005891 -0.025423  0.011701
			 0.006540 -0.022767  0.013387
			 0.008067 -0.033575  0.011532
			 0.009042 -0.031902  0.010798
			 0.004888 -0.028300  0.010896
			 0.005318 -0.031501  0.011535
			 0.003943 -0.024186  0.018107
			 0.004384 -0.029845  0.014579
			 0.000902 -0.025326  0.021120
			 0.002511 -0.027977  0.015623
			-0.001078 -0.027651  0.019175
			 0.004162 -0.021312  0.014654
			 0.004303 -0.021891  0.016289
			 0.003312 -0.023886  0.011316
			 0.002650 -0.026596  0.010144
			 0.002453 -0.020300  0.012426
			 0.002104 -0.028192  0.010042
			 0.001015 -0.027758  0.012976
			 0.003000 -0.021806  0.016911
			-0.001518 -0.025396  0.022817
			-0.001988 -0.023670  0.022217
			-0.000881 -0.017294  0.016903
			-0.004078 -0.026030  0.023303
			-0.006514 -0.026669  0.022935
			-0.011247 -0.027510  0.010638
			-0.000896 -0.027339  0.007023
			-0.009484 -0.028543  0.018376
			-0.008255 -0.028631  0.020303
			 0.001827 -0.019356  0.014453
			 0.001863 -0.022641  0.010025
			 0.000861 -0.027948  0.008652
			 0.001604 -0.017382  0.008758
			 0.001858 -0.020304  0.008115
			 0.001713 -0.012777  0.010930
			 0.000206 -0.027817  0.007411
			-0.005547 -0.023301  0.023691
			-0.008251 -0.018952  0.020510
			-0.002283 -0.014538  0.015063
			 0.000289 -0.011602  0.013463
			-0.009138 -0.026921  0.019862
			-0.011885 -0.023717  0.011429
			-0.011575 -0.027396  0.012939
			 0.000807 -0.019774  0.006673
			 0.000644 -0.025300  0.007462
			 0.001312 -0.015350  0.007531
			 0.000832 -0.009279  0.009405
			-0.007795 -0.022396  0.020671
			-0.010289 -0.015154  0.014141
			-0.010650 -0.016771  0.012496
			-0.002126 -0.012808  0.013180
			-0.011228 -0.015132  0.009572
			-0.009903 -0.013983  0.009047
			-0.001704 -0.010813  0.008542
			-0.010059 -0.014240  0.012035
		</DataArray>
	</Points>
			<Polys>
				<DataArray type="Int32" Name="connectivity" format="ascii">
					0 1 2 
					0 2 3 
					0 4 1 
					0 3 5 
					4 0 6 
					5 6 0 
					1 7 2 
					1 8 7 
					9 8 1 
					4 10 1 
					10 11 1 
					1 11 9 
					2 7 3 
					3 12 5 
					13 3 7 
					3 13 12 
					6 10 4 
					6 5 14 
					15 5 12 
					5 15 14 
					10 6 16 
					16 6 14 
					7 8 17 
					18 7 17 
					19 13 7 
					19 7 20 
					20 7 18 
					9 17 8 
					17 9 21 
					11 21 9 
					22 10 16 
					10 22 11 
					23 21 11 
					11 22 23 
					12 13 15 
					15 13 24 
					19 24 13 
					25 16 14 
					15 25 14 
					24 25 15 
					22 16 26 
					24 16 25 
					16 27 26 
					16 24 27 
					28 18 17 
					28 17 21 
					18 29 20 
					18 28 30 
					31 29 18 
					18 30 32 
					31 18 32 
					24 19 27 
					27 19 29 
					20 29 19 
					21 23 33 
					21 33 34 
					28 21 34 
					23 22 35 
					36 35 22 
					36 22 26 
					23 35 37 
					37 33 23 
					38 26 27 
					26 38 36 
					39 27 29 
					27 39 38 
					40 28 34 
					40 30 28 
					39 29 31 
					41 30 42 
					41 32 30 
					42 30 43 
					40 43 30 
					39 31 32 
					32 44 45 
					46 47 32 
					48 32 49 
					45 49 32 
					32 48 46 
					32 41 44 
					39 32 47 
					34 33 50 
					33 37 50 
					40 34 50 
					51 35 36 
					37 35 51 
					36 52 51 
					52 36 38 
					53 37 54 
					54 37 51 
					37 55 50 
					55 37 53 
					52 38 39 
					56 52 39 
					47 56 39 
					43 40 50 
					42 44 41 
					44 42 57 
					43 57 42 
					58 43 59 
					58 57 43 
					60 59 43 
					60 43 50 
					44 57 45 
					45 61 49 
					45 57 61 
					46 62 47 
					46 63 62 
					63 46 48 
					47 62 64 
					47 65 56 
					64 65 47 
					61 48 49 
					62 63 48 
					61 62 48 
					50 55 60 
					51 52 54 
					65 52 56 
					52 65 54 
					54 64 53 
					53 64 66 
					53 66 55 
					65 64 54 
					55 66 67 
					55 67 60 
					61 57 68 
					58 68 57 
					59 69 58 
					62 68 58 
					69 70 58 
					58 70 62 
					71 59 60 
					71 69 59 
					67 71 60 
					62 61 68 
					64 62 66 
					62 70 72 
					66 62 73 
					72 73 62 
					74 66 73 
					74 67 66 
					74 71 67 
					71 74 69 
					69 74 75 
					75 70 69 
					70 75 72 
					72 75 73 
					73 75 74 
				</DataArray>
				<DataArray type="Int32" Name="offsets" format="ascii">
					3 6 9 12 15 18 21 24 27 30 33 36 39 42 45 48 51 54 57 60 63 66 69 72 75 78 81 84 87 90 93 96 99 102 105 108 111 114 117 120 123 126 129 132 135 138 141 144 147 150 153 156 159 162 165 168 171 174 177 180 183 186 189 192 195 198 201 204 207 210 213 216 219 222 225 228 231 234 237 240 243 246 249 252 255 258 261 264 267 270 273 276 279 282 285 288 291 294 297 300 303 306 309 312 315 318 321 324 327 330 333 336 339 342 345 348 351 354 357 360 363 366 369 372 375 378 381 384 387 390 393 396 399 402 405 408 411 414 417 420 423 426 429 432 435 438 441 444 
				</DataArray>
			</Polys>
		</Piece>
	</PolyData>
</VTKFile>
