<?xml version="1.0"?>
<VTKFile type="PolyData" version="0.1" byte_order="LittleEndian" compressor="vtkZLibDataCompressor">
	<PolyData>
		<Piece NumberOfPoints="1130" NumberOfVerts="0" NumberOfLines="0" NumberOfStrips="0" NumberOfPolys="2292">
		<PointData Normals="Normals">
		<DataArray type="Float32" Name="Normals" NumberOfComponents="3" format="ascii">
			-0.458214 -0.872822  0.167995
			-0.545956 -0.825963 -0.140420
			-0.573682 -0.788982  0.219992
			-0.641564 -0.766964  0.012717
			-0.025164 -0.952108  0.304724
			-0.078824 -0.994804  0.064439
			-0.144226 -0.922213  0.358778
			-0.132519 -0.870981  0.473108
			-0.461647 -0.812376  0.356269
			-0.644920 -0.709749 -0.283433
			-0.683110 -0.722877  0.103976
			-0.676837 -0.706527 -0.206668
			-0.139816 -0.958214  0.249556
			 0.352908 -0.784591  0.509777
			-0.427739 -0.713184 -0.555345
			-0.588378 -0.669593 -0.453273
			-0.709224 -0.671157  0.215755
			-0.652661 -0.702226  0.284451
			-0.318751 -0.816195  0.481895
			-0.594264 -0.732619 -0.331842
			-0.612784 -0.786968 -0.071945
			-0.644742 -0.733625  0.214712
			 0.500002 -0.694841  0.516908
			 0.361384 -0.809307  0.463059
			 0.467284 -0.724917  0.506103
			-0.371315 -0.578579 -0.726204
			-0.345653 -0.599561 -0.721838
			-0.406969 -0.733914 -0.543825
			 0.329439 -0.917365  0.223408
			 0.238993 -0.801261  0.548510
			-0.641478 -0.689186  0.336940
			-0.626739 -0.725570  0.284159
			-0.549196 -0.738022  0.392056
			 0.089803 -0.818900  0.566867
			-0.182885 -0.808200  0.559791
			-0.447616 -0.767921  0.458189
			-0.462428 -0.883098 -0.079359
			-0.382695 -0.833293 -0.398958
			-0.575230 -0.806883  0.134352
			-0.614387 -0.717855  0.327434
			 0.483376 -0.736966  0.472471
			 0.553290 -0.705858  0.442307
			 0.379009 -0.752645  0.538403
			-0.129591 -0.495733 -0.858752
			 0.012053 -0.865176 -0.501324
			-0.013222 -0.947099 -0.320668
			-0.199193 -0.560997 -0.803495
			-0.197243 -0.673453 -0.712430
			-0.486647 -0.771935  0.409012
			-0.544974 -0.777164  0.314674
			-0.693239 -0.696423  0.185512
			-0.061888 -0.794184  0.604518
			-0.246390 -0.786304  0.566585
			-0.465833 -0.741342  0.483126
			-0.364762 -0.865553 -0.343173
			-0.271919 -0.755430 -0.596142
			-0.807610 -0.581117  0.100348
			-0.646069 -0.701015  0.301947
			-0.476729 -0.878834 -0.019509
			-0.629244 -0.722190  0.287218
			-0.686105 -0.693018  0.221328
			 0.585044 -0.768249  0.259840
			 0.705966 -0.704339  0.074286
			 0.855123 -0.452655  0.252722
			 0.618671 -0.655426  0.433201
			 0.841978 -0.538907  0.025544
			 0.584864 -0.661956  0.468773
			 0.470816 -0.722542  0.506226
			 0.511692 -0.685422  0.518042
			 0.515595 -0.690114  0.507842
			 0.126160 -0.776957  0.616784
			 0.253922 -0.774327  0.579605
			-0.073517 -0.325549 -0.942663
			 0.371550 -0.382280 -0.846057
			 0.351929 -0.710502 -0.609371
			-0.004090 -0.390346 -0.920659
			-0.052508 -0.579343 -0.813391
			 0.465969 -0.884099 -0.035237
			-0.350258 -0.803615  0.481167
			-0.618637 -0.740207  0.263405
			-0.420250 -0.810716  0.407589
			-0.804251 -0.577090  0.141941
			-0.746343 -0.642418  0.173987
			-0.200438 -0.787615  0.582655
			-0.019268 -0.744945  0.666848
			 0.003364 -0.761192  0.648518
			-0.670506 -0.710404 -0.213889
			-0.488355 -0.652697 -0.579220
			-0.504367 -0.753269 -0.422137
			-0.223453 -0.677271 -0.700980
			-0.668285 -0.686194  0.287287
			-0.700611 -0.642161  0.311086
			-0.855173 -0.512056  0.080481
			-0.789972 -0.571276  0.222682
			 0.694627 -0.631265 -0.344962
			 0.559181 -0.812922 -0.162709
			 0.971285 -0.215747 -0.100297
			 0.864253 -0.386674  0.321791
			 0.788123 -0.564133 -0.246201
			 0.535679 -0.657242  0.530171
			 0.479836 -0.700927  0.527692
			 0.553563 -0.603372  0.574029
			 0.586790 -0.548659  0.595526
			 0.471666 -0.699070  0.537432
			 0.201107 -0.710520  0.674327
			 0.340032 -0.724662  0.599369
			-0.006148 -0.087597 -0.996137
			 0.117721 -0.080583 -0.989772
			 0.381160 -0.010503 -0.924449
			 0.167347 -0.079314 -0.982703
			 0.224863 -0.357415 -0.906472
			-0.214238 -0.355712 -0.909709
			-0.178711 -0.823858  0.537885
			-0.691402 -0.701630  0.172276
			-0.751869 -0.645725  0.133159
			-0.475583 -0.800007  0.365800
			-0.863520 -0.498539  0.076103
			-0.965046 -0.261857  0.010856
			 0.111385 -0.753081  0.648431
			-0.720594 -0.517702 -0.461226
			-0.508710 -0.490551 -0.707512
			-0.923341 -0.219288 -0.315204
			-0.921061 -0.371848 -0.115658
			-0.861319 -0.343415 -0.374426
			-0.929173 -0.329961 -0.166623
			-0.885126 -0.463759  0.038458
			 0.980573 -0.130210  0.146706
			 0.996938  0.029477 -0.072431
			 0.950630 -0.241591 -0.194775
			 0.840646 -0.382536  0.383381
			 0.829669 -0.329943 -0.450319
			 0.709284 -0.490044  0.506728
			 0.513357 -0.611571  0.602035
			 0.642950 -0.347046  0.682770
			 0.703929 -0.274195  0.655210
			 0.427474 -0.585770  0.688578
			 0.393274 -0.574959  0.717467
			 0.238975 -0.684370  0.688860
			 0.217921  0.179718 -0.959277
			 0.710940 -0.378824 -0.592500
			 0.616085 -0.167752 -0.769610
			 0.551342  0.113552 -0.826516
			 0.214667 -0.205006 -0.954930
			 0.165218 -0.413137 -0.895556
			-0.569170 -0.143794 -0.809549
			 0.405018 -0.278613 -0.870825
			 0.492766 -0.073789 -0.867027
			-0.053110 -0.824011  0.564079
			-0.332107 -0.820479  0.465316
			 0.338569 -0.729220  0.594650
			 0.093544 -0.809352  0.579826
			-0.502385 -0.791735  0.347513
			-0.563432 -0.771146  0.296442
			-0.686543 -0.702760  0.186512
			-0.809203 -0.579884  0.094473
			-0.843012 -0.537260  0.026113
			-0.865863 -0.500101 -0.013443
			-0.948047 -0.299861 -0.106260
			-0.976522 -0.207391 -0.058250
			-0.979014  0.010018 -0.203545
			-0.962391  0.034795 -0.269429
			 0.403181 -0.656242  0.637802
			-0.664700 -0.391056 -0.636593
			-0.780976 -0.314578 -0.539553
			-0.875046 -0.016724 -0.483750
			-0.968078 -0.109979 -0.225233
			-0.943249 -0.156501 -0.292896
			 0.987099  0.094882  0.128967
			 0.877894  0.378861 -0.292859
			 0.851764  0.237513 -0.466996
			 0.809388  0.045385 -0.585517
			 0.956910  0.124410  0.262383
			 0.818070 -0.114430  0.563620
			 0.660461 -0.323043  0.677816
			 0.733823  0.058575  0.676810
			 0.667885 -0.261088  0.696967
			 0.554294 -0.460573  0.693275
			 0.351988  0.345681 -0.869833
			 0.520284  0.276373 -0.808036
			 0.293660  0.165727 -0.941434
			 0.198364  0.254269 -0.946572
			-0.107818  0.104062 -0.988710
			-0.507808  0.084903 -0.857276
			 0.427782  0.038162 -0.903076
			-0.734364 -0.084390 -0.673489
			 0.632696  0.093357 -0.768752
			 0.727338  0.154901 -0.668570
			-0.219131 -0.825092  0.520773
			 0.164184 -0.763671  0.624380
			-0.043093 -0.806095  0.590215
			-0.386665 -0.813533  0.434344
			-0.584287 -0.752614  0.303614
			 0.476781 -0.662087  0.578204
			-0.784078 -0.604417  0.141074
			-0.914493 -0.403139 -0.034375
			-0.892679 -0.449734  0.029386
			-0.964353 -0.093701 -0.247476
			-0.966811 -0.161895 -0.197655
			-0.957170  0.013973 -0.289190
			-0.947249 -0.296198 -0.122419
			-0.954784  0.039936 -0.294604
			-0.891473  0.215301 -0.398650
			 0.822519 -0.230525  0.519924
			-0.859460  0.150235 -0.488629
			-0.753186  0.131968 -0.644435
			-0.857572  0.187851 -0.478834
			-0.877922  0.151378 -0.454244
			 0.857462  0.468785 -0.212129
			 0.874824  0.480189 -0.064040
			 0.903549  0.415147  0.106075
			 0.734672  0.153937  0.660727
			 0.831337  0.202172  0.517693
			 0.855537 -0.013177  0.517574
			 0.290076  0.378829 -0.878831
			 0.389884  0.445211 -0.806088
			 0.678045  0.313191 -0.664956
			 0.500728  0.475880 -0.723055
			 0.678642  0.415318 -0.605768
			 0.514832  0.310156 -0.799219
			-0.474114  0.156739 -0.866400
			 0.435983  0.256848 -0.862524
			-0.213780 -0.811385  0.544016
			-0.413443 -0.798620  0.437346
			-0.326592 -0.811476  0.484608
			 0.223789 -0.730499  0.645205
			 0.327360 -0.704874  0.629276
			 0.577164 -0.601397  0.552452
			 0.063407 -0.776449  0.626982
			-0.122022 -0.806816  0.578064
			-0.547839 -0.756155  0.357913
			-0.709066 -0.661348  0.244630
			 0.727621 -0.460491  0.508444
			-0.878082 -0.475423  0.054270
			-0.820096 -0.555904  0.135696
			-0.924596 -0.380784 -0.011238
			-0.923635 -0.383246  0.004562
			-0.965703  0.005064 -0.259601
			-0.959070 -0.228573 -0.167151
			-0.960216 -0.078134 -0.268104
			-0.913832  0.069589 -0.400086
			-0.786031  0.299313 -0.540895
			-0.952962 -0.291145 -0.084248
			-0.885919  0.184799 -0.425438
			-0.834229  0.300785 -0.462159
			-0.835190  0.321381 -0.446286
			-0.686963  0.469997 -0.554242
			 0.856226 -0.197739  0.477260
			-0.788625  0.252126 -0.560805
			-0.860526  0.226724 -0.456169
			-0.881220  0.136727 -0.452501
			 0.603668  0.589209 -0.537045
			 0.825194  0.547382  0.139382
			 0.686910  0.725009  0.050173
			 0.802241  0.595506 -0.042216
			 0.881378  0.412827  0.229666
			 0.803971  0.489980  0.336973
			 0.666296  0.709152  0.230548
			 0.662083  0.618983  0.422501
			 0.379469  0.486002 -0.787277
			 0.380160  0.594503 -0.708552
			-0.055970  0.365516 -0.929121
			-0.483373  0.323365 -0.813502
			-0.763478  0.148810 -0.628456
			 0.691733  0.243790 -0.679759
			 0.790964  0.283619 -0.542158
			 0.796899  0.358995 -0.485875
			-0.282986 -0.809432  0.514528
			-0.410495 -0.791031  0.453612
			 0.472884 -0.631723  0.614253
			 0.156429 -0.745413  0.647988
			 0.254622 -0.724462  0.640564
			 0.659731 -0.539566  0.523091
			 0.051265 -0.782787  0.620174
			-0.170360 -0.825491  0.538091
			-0.256010 -0.816802  0.517004
			 0.003277 -0.808158  0.588957
			-0.633646 -0.707838  0.312182
			-0.487804 -0.764502  0.421407
			-0.757844 -0.616948  0.212243
			 0.605424 -0.583151  0.541662
			-0.889310 -0.452120  0.068667
			-0.954528 -0.286750 -0.081547
			-0.948423  0.082047 -0.306205
			-0.964825 -0.140068 -0.222473
			-0.778375  0.250002 -0.575874
			-0.927576 -0.011055 -0.373471
			-0.543589  0.530662 -0.650314
			-0.968999 -0.214086 -0.123321
			-0.773942  0.420315 -0.473656
			-0.687036  0.532686 -0.494194
			 0.858004  0.461275  0.225952
			 0.916095  0.319425  0.242359
			-0.759393  0.432449 -0.486117
			-0.820536  0.259556 -0.509265
			-0.710682  0.473187 -0.520601
			-0.658779  0.484909 -0.575216
			 0.601443  0.660065 -0.450090
			 0.696357  0.657149 -0.288518
			 0.673620  0.715708 -0.184385
			 0.426843  0.708666 -0.561781
			 0.560059  0.817025  0.137129
			 0.647919  0.745258  0.157451
			 0.426824  0.523454 -0.737440
			 0.665822  0.479167 -0.571909
			 0.412072  0.696712 -0.587186
			-0.384506  0.519081 -0.763355
			 0.492007  0.419119 -0.763065
			 0.066338  0.569215 -0.819508
			 0.584037  0.565254 -0.582570
			 0.644227  0.611949 -0.458792
			 0.791351  0.509373 -0.338087
			 0.783311  0.499869 -0.369534
			-0.559616 -0.747442  0.357995
			-0.348811 -0.813132  0.465991
			 0.861076 -0.333763  0.383602
			 0.693104 -0.466525  0.549510
			 0.382306 -0.674576  0.631498
			 0.257039 -0.735340  0.627061
			 0.710328 -0.438074  0.550931
			 0.805584 -0.420509  0.417380
			 0.834869 -0.358846  0.417401
			-0.156744 -0.826242  0.541069
			-0.463874 -0.779946  0.420126
			-0.363064 -0.804692  0.469741
			-0.440900 -0.786512  0.432443
			 0.058866 -0.791908  0.607796
			-0.875811 -0.477085  0.073111
			-0.768211 -0.615433  0.176338
			 0.830209 -0.340904  0.441065
			-0.967479 -0.176382 -0.181311
			-0.968439 -0.153822 -0.196125
			-0.963661 -0.100125 -0.247655
			-0.855287 -0.511949  0.079954
			-0.932082 -0.357309 -0.059608
			-0.956881 -0.244185 -0.157330
			-0.877255  0.096119 -0.470303
			-0.295075  0.607155 -0.737762
			-0.315469  0.743548 -0.589590
			-0.048558  0.774238 -0.631029
			-0.656201  0.643503 -0.394086
			-0.501260  0.821928 -0.270505
			-0.330124  0.839810 -0.430972
			 0.946747  0.093907  0.307979
			 0.934627  0.326751  0.140380
			 0.826987  0.561772  0.022443
			 0.743907  0.668257  0.005888
			 0.961011 -0.002763  0.276495
			-0.594537  0.539449 -0.596255
			-0.437832  0.679649 -0.588541
			 0.528923  0.784125 -0.324635
			 0.459666  0.887959  0.015389
			 0.449997  0.789845 -0.416710
			 0.451499  0.883543  0.124497
			 0.401123  0.904763  0.143191
			 0.657439  0.751736 -0.051645
			 0.396145  0.912781  0.099493
			 0.599619  0.799314 -0.039417
			 0.524051  0.709878 -0.470578
			 0.062317  0.731432 -0.679061
			 0.688433  0.678977 -0.255048
			 0.345286  0.822474 -0.452012
			 0.783256  0.595842 -0.177432
			-0.528932 -0.759995  0.377675
			-0.699537 -0.674093  0.237166
			 0.885754 -0.295605  0.357853
			 0.484165 -0.612402  0.624938
			 0.740641 -0.399703  0.540081
			 0.159206 -0.758294  0.632173
			 0.467188 -0.653305  0.595759
			 0.718482 -0.423998  0.551371
			 0.991391  0.019094  0.129538
			-0.550613 -0.754715  0.356693
			-0.191518 -0.822289  0.535874
			-0.393359 -0.806833  0.440783
			-0.289577 -0.808177  0.512831
			-0.016671 -0.778362  0.627595
			-0.951698 -0.006308 -0.306970
			-0.952985 -0.020949 -0.302292
			-0.962677 -0.159365 -0.218758
			-0.810256  0.236595 -0.536198
			-0.745325 -0.631348  0.214219
			-0.902421 -0.430611  0.014514
			-0.801658 -0.574145  0.166437
			-0.952637 -0.272272 -0.135465
			-0.958622 -0.188948 -0.212939
			-0.738566  0.284227 -0.611338
			-0.690854  0.331622 -0.642454
			-0.458347  0.498978 -0.735486
			-0.072257  0.650116 -0.756391
			 0.119663  0.877514 -0.464380
			 0.058803  0.986561 -0.152444
			 0.184222  0.901559 -0.391476
			 0.042654  0.946457 -0.319999
			 0.937253  0.342235  0.066570
			 0.833333  0.550167 -0.053595
			 0.867458  0.490536 -0.083017
			 0.718479  0.689653 -0.090376
			 0.945149  0.326550  0.007686
			-0.292477  0.909965 -0.293975
			-0.300716  0.944598 -0.131545
			-0.261397  0.742102 -0.617217
			-0.344512  0.678271 -0.649045
			 0.451123  0.876289 -0.169132
			 0.629580  0.746640 -0.214845
			 0.440133  0.883670  0.159409
			 0.507522  0.861292 -0.024442
			 0.446068  0.888143  0.110565
			 0.603869  0.779789 -0.165140
			 0.695533  0.704938 -0.138911
			 0.639765  0.754301 -0.147412
			 0.211307  0.868491 -0.448411
			 0.060377  0.857393 -0.511109
			-0.631654 -0.706457  0.319267
			 0.692373 -0.454984  0.560008
			-0.020727 -0.780723  0.624533
			 0.004977 -0.822280  0.569061
			 0.213583 -0.770927  0.600044
			 0.486473 -0.654018  0.579314
			 0.973225  0.226448 -0.039422
			 0.992918  0.114796 -0.030607
			-0.789984 -0.593217  0.154982
			-0.715527 -0.664556  0.215372
			-0.661583 -0.692610  0.287399
			-0.464456 -0.785853  0.408308
			-0.053636 -0.819426  0.570669
			-0.290750 -0.820783  0.491711
			-0.161738 -0.811662  0.561289
			-0.884726  0.185857 -0.427454
			-0.899803  0.136393 -0.414429
			-0.960882 -0.095163 -0.260096
			-0.922660  0.098255 -0.372886
			-0.618605  0.383936 -0.685508
			-0.898258 -0.439433  0.005623
			-0.948766 -0.275637 -0.154489
			 0.131356  0.773607 -0.619902
			 0.294198  0.743171 -0.600953
			 0.110436  0.684194 -0.720890
			-0.176317  0.602080 -0.778724
			 0.209876  0.862040 -0.461344
			 0.215256  0.821153 -0.528558
			 0.000010  0.999831  0.018386
			 0.290451  0.864448 -0.410327
			 0.359878  0.851045 -0.382375
			 0.422976  0.897065 -0.127930
			 0.516347  0.795871 -0.316189
			 0.870608  0.485499 -0.079576
			 0.835788  0.538014 -0.109546
			 0.786418  0.603673 -0.130862
			 0.814935  0.565294 -0.127766
			 0.805748  0.572085 -0.153258
			 0.905224  0.422709 -0.043427
			 0.516323  0.848745  0.114210
			 0.682648  0.729889  0.035411
			 0.498121  0.861714  0.096566
			 0.466118  0.869592  0.162922
			 0.633135  0.722388 -0.278021
			 0.666018  0.700559 -0.256197
			 0.728386  0.663865 -0.169518
			 0.510195  0.858005 -0.059406
			 0.629584  0.774759 -0.058070
			 0.692311  0.691831  0.205122
			 0.478126  0.866032 -0.146232
			 0.581370  0.799219  0.152506
			 0.985927  0.032163  0.164055
			 0.807799 -0.372292  0.457011
			 0.855414 -0.279930  0.435783
			 0.184653 -0.772819  0.607168
			 0.415342 -0.661256  0.624686
			 0.935488 -0.096437  0.339943
			 0.981901  0.089871  0.166712
			-0.790472 -0.590168  0.163878
			-0.897411 -0.440728 -0.020317
			-0.688143 -0.681205  0.249838
			-0.290782 -0.809920  0.509387
			-0.401413 -0.800438  0.445159
			 0.011908 -0.792733  0.609452
			-0.185557 -0.833168  0.520960
			-0.725385  0.402111 -0.558681
			-0.885109  0.193770 -0.423126
			-0.743384  0.370343 -0.556980
			-0.920794  0.061976 -0.385094
			-0.961958 -0.137155 -0.236273
			-0.939774 -0.313978 -0.135064
			-0.953864 -0.146686 -0.261967
			-0.953186 -0.217470 -0.210105
			 0.274671  0.782529 -0.558752
			 0.367471  0.681112 -0.633286
			 0.400873  0.727674 -0.556589
			-0.203132  0.617880 -0.759580
			 0.378476  0.814366 -0.439960
			 0.259620  0.965041  0.035957
			 0.592235  0.725011 -0.351593
			 0.617383  0.782732 -0.078542
			 0.648675  0.724090 -0.234339
			 0.625156  0.714394 -0.314359
			 0.795315  0.562274 -0.226543
			 0.719029  0.632961 -0.286978
			 0.850884  0.493707 -0.179584
			 0.742235  0.625597 -0.240239
			 0.907515  0.410672 -0.088123
			 0.886140  0.404214 -0.226642
			 0.147204  0.954407 -0.259688
			 0.561046  0.761916  0.323590
			 0.712664  0.685462 -0.149173
			 0.724209  0.648497 -0.234463
			 0.525969  0.839183  0.138304
			 0.568444  0.791293  0.225226
			 0.401949  0.909521  0.105866
			 0.931170  0.324668 -0.165872
			 0.639923 -0.524622  0.561490
			 0.807312 -0.350728  0.474591
			 0.983696  0.056375  0.170777
			 0.915949 -0.197456  0.349353
			 0.221864 -0.753876  0.618423
			 0.488905 -0.675506  0.551964
			 0.976008  0.213037  0.044994
			-0.842872 -0.531609  0.083417
			-0.942308 -0.304968 -0.138021
			-0.912116 -0.407766 -0.042086
			-0.723265 -0.659689  0.204202
			-0.564998 -0.761070  0.318668
			-0.853013 -0.520881  0.032411
			-0.098963 -0.808603  0.579972
			-0.431905 -0.801397  0.413788
			-0.203637 -0.841802  0.499901
			-0.660581  0.436483 -0.610832
			-0.408870  0.623942 -0.665974
			-0.341997  0.639536 -0.688500
			-0.485436  0.525054 -0.699050
			-0.907589  0.097745 -0.408323
			-0.883724  0.146472 -0.444497
			-0.604412  0.443149 -0.662046
			-0.940217 -0.028118 -0.339413
			-0.960471 -0.214147 -0.177867
			-0.945631 -0.219897 -0.239640
			-0.937392 -0.124487 -0.325267
			 0.406776  0.750570 -0.520747
			 0.311991  0.748323 -0.585384
			 0.592010  0.641744 -0.487534
			 0.522636  0.659747 -0.539987
			 0.549970  0.645169 -0.530368
			 0.105828  0.704413 -0.701856
			-0.072895  0.699017 -0.711380
			 0.532518  0.750284 -0.391788
			 0.544418  0.744693 -0.386059
			 0.513211  0.750890 -0.415666
			 0.520762  0.835543  0.175143
			 0.725659  0.624761 -0.288257
			 0.694832  0.715088 -0.076537
			 0.682609  0.713675  0.157203
			 0.649263  0.701032 -0.294978
			 0.610309  0.711018 -0.349251
			 0.814616  0.523182 -0.250361
			 0.755311  0.591159 -0.282909
			 0.903427  0.403698 -0.144388
			 0.830293  0.516984 -0.208183
			 0.613551  0.681656 -0.398623
			 0.705214  0.705421  0.071089
			 0.645076  0.701370  0.303245
			 0.914206  0.385633 -0.124558
			 0.778401  0.539358 -0.321224
			 0.980301  0.037820  0.193854
			 0.985711  0.157120  0.060719
			 0.328553 -0.726695  0.603297
			 0.108966 -0.801346  0.588194
			 0.286016 -0.756553  0.588066
			 0.809088 -0.424291  0.406638
			 0.722633 -0.569319  0.392016
			 0.524700 -0.690371  0.498074
			 0.345872 -0.760838  0.549089
			 0.422359 -0.706674  0.567648
			 0.876197  0.445315 -0.184319
			 0.897648  0.411904 -0.156730
			-0.925319 -0.363073 -0.109376
			-0.624863 -0.726907  0.284874
			-0.852911 -0.520365  0.041991
			-0.043440 -0.820901  0.569416
			-0.406973 -0.809662  0.422872
			-0.018991 -0.826290  0.562925
			-0.022528 -0.856398  0.515824
			-0.141423 -0.852424  0.503361
			-0.252935 -0.841721  0.477001
			-0.215200  0.670439 -0.710070
			 0.111484  0.773665 -0.623710
			-0.303712  0.670419 -0.676976
			-0.845845  0.215883 -0.487792
			-0.780498  0.200612 -0.592097
			-0.915156  0.016231 -0.402772
			-0.936769 -0.187325 -0.295590
			-0.925145 -0.287362 -0.248053
			-0.893600 -0.027211 -0.448039
			-0.924204 -0.140409 -0.355151
			 0.356015  0.728381 -0.585418
			 0.548297  0.686213 -0.477998
			 0.468056  0.703939 -0.534222
			 0.657620  0.592718 -0.464996
			 0.402041  0.701789 -0.588094
			 0.710523  0.613381 -0.344850
			 0.779724  0.558373 -0.283285
			 0.818003  0.512794 -0.260603
			 0.835104  0.489606 -0.250774
			 0.802395  0.544295 -0.244755
			 0.825036  0.502815 -0.257861
			 0.786597  0.536198 -0.306197
			 0.754574  0.556164 -0.348281
			 0.990777  0.074344  0.113287
			 0.926562 -0.224030  0.302148
			 0.967470  0.250736  0.033668
			 0.288967 -0.768242  0.571228
			 0.154171 -0.803756  0.574637
			 0.970403 -0.201442  0.133185
			 0.393758 -0.758406  0.519399
			 0.845119  0.468562 -0.257338
			-0.779852 -0.618204  0.098259
			-0.566152 -0.725623  0.391080
			-0.644342 -0.712361  0.278146
			-0.681761 -0.711112  0.171820
			-0.433759 -0.757879  0.487312
			-0.307766 -0.817432  0.486913
			 0.200569 -0.823759  0.530276
			 0.068325 -0.859683  0.506238
			-0.296552 -0.803383  0.516364
			-0.119144 -0.832477  0.541097
			-0.048193 -0.846708  0.529871
			-0.253238 -0.818389  0.515858
			-0.046455  0.743283 -0.667362
			 0.164625  0.756757 -0.632627
			-0.480164  0.495379 -0.723908
			-0.844507  0.040035 -0.534046
			-0.814488  0.074354 -0.575397
			-0.037667  0.734239 -0.677845
			-0.146949  0.622996 -0.768298
			 0.123318  0.711228 -0.692060
			-0.108782  0.581933 -0.805929
			-0.900256 -0.200496 -0.386446
			-0.892526 -0.443062 -0.084222
			-0.920268 -0.319937 -0.225271
			-0.923415 -0.237380 -0.301587
			-0.885248 -0.030180 -0.464139
			 0.543968  0.677267 -0.495388
			 0.440813  0.682985 -0.582422
			 0.672373  0.643294 -0.366180
			 0.584788  0.692211 -0.422926
			 0.575447  0.691386 -0.436860
			 0.417713  0.701205 -0.577778
			 0.754432  0.580862 -0.305666
			 0.881139  0.424154 -0.209013
			 0.816587  0.508093 -0.273910
			 0.979320  0.202274  0.004231
			 0.995208  0.021810  0.095319
			 0.993543 -0.072045  0.087646
			 0.849304  0.467969 -0.244312
			 0.993021  0.089450 -0.076860
			 0.858392 -0.418788  0.296276
			 0.980705  0.061138 -0.185687
			 0.716528 -0.568685  0.403961
			 0.619814 -0.630853  0.466749
			 0.531662 -0.701015  0.475304
			 0.378903 -0.768114  0.516171
			 0.854459  0.459798 -0.241838
			-0.779715 -0.613675  0.124286
			-0.695701 -0.661993  0.278865
			-0.677531 -0.635726  0.369870
			-0.574500 -0.665757  0.476148
			-0.765358 -0.617757  0.180565
			-0.453182 -0.721076  0.524094
			 0.352065 -0.787318  0.506144
			 0.197352 -0.823299  0.532194
			 0.021629 -0.838289  0.544797
			-0.054599 -0.824749  0.562857
			-0.249560 -0.771135  0.585722
			-0.027885 -0.836176  0.547751
			 0.050520  0.687081 -0.724823
			-0.497529  0.427436 -0.754827
			-0.703525  0.180930 -0.687254
			-0.860790 -0.100085 -0.499022
			-0.790864  0.073370 -0.607578
			-0.823955 -0.066418 -0.562750
			 0.218713  0.672577 -0.706969
			-0.010602  0.552289 -0.833585
			 0.266065  0.618948 -0.738994
			-0.017730  0.530670 -0.847393
			-0.880627 -0.261779 -0.394927
			-0.915038 -0.328798 -0.233659
			-0.914472 -0.241678 -0.324550
			-0.858265 -0.169950 -0.484251
			-0.919029 -0.347384 -0.186306
			-0.871764 -0.489919 -0.002709
			 0.702495  0.606946 -0.371642
			 0.678697  0.607979 -0.411984
			 0.566726  0.617030 -0.545982
			 0.322226  0.628542 -0.707888
			 0.413570  0.681916 -0.603283
			 0.506582  0.713046 -0.484707
			 0.765213  0.557919 -0.321210
			 0.819620  0.502655 -0.274885
			 0.930970  0.328156 -0.160025
			 0.990843  0.050927 -0.125045
			 0.837762  0.477783 -0.264344
			 0.949081 -0.275804  0.152239
			 0.793638 -0.489364  0.361471
			 0.834206  0.371883 -0.407190
			 0.798578  0.325023 -0.506590
			 0.871240  0.367276 -0.325652
			 0.864669  0.208741 -0.456918
			 0.955155 -0.287527  0.070756
			 0.983912 -0.033608 -0.175464
			 0.700752 -0.596671  0.391064
			 0.491717 -0.741039  0.457248
			-0.759174 -0.565317  0.322601
			-0.662824 -0.602587  0.444470
			-0.597053 -0.632869  0.492955
			-0.837902 -0.528506  0.136387
			-0.833365 -0.545773  0.087378
			-0.748241 -0.610199  0.260370
			-0.590153 -0.623319  0.513022
			 0.386613 -0.763888  0.516726
			 0.354264 -0.765359  0.537330
			 0.114747 -0.797255  0.592636
			-0.013758 -0.804840  0.593332
			 0.256849 -0.774994  0.577419
			-0.484443 -0.607813  0.629189
			-0.378086 -0.700316  0.605482
			-0.224416 -0.737521  0.636946
			-0.325837 -0.674220  0.662766
			 0.004190  0.458724 -0.888569
			-0.520563  0.329632 -0.787627
			-0.472940  0.218657 -0.853532
			-0.629212  0.080277 -0.773077
			-0.773505  0.008571 -0.633733
			-0.785961 -0.067774 -0.614550
			-0.884451 -0.153769 -0.440569
			-0.815595 -0.094360 -0.570878
			 0.329143  0.663802 -0.671589
			 0.307688  0.543591 -0.780921
			-0.920099 -0.280535 -0.273346
			-0.920443 -0.390631  0.013820
			-0.937118 -0.348118  0.024954
			-0.917261 -0.381567 -0.114192
			-0.897888 -0.439593 -0.023550
			-0.859416 -0.510905  0.019503
			 0.676075  0.618505 -0.400467
			 0.698222  0.581292 -0.417834
			 0.569852  0.578005 -0.584106
			 0.664773  0.570731 -0.482020
			 0.369447  0.598264 -0.711048
			 0.813485  0.483642 -0.323004
			 0.851356 -0.464851  0.243119
			 0.700343  0.460612 -0.545303
			 0.735379  0.484511 -0.473778
			 0.657462  0.418078 -0.626860
			 0.755775  0.498789 -0.424279
			 0.769955  0.509148 -0.384627
			 0.965450 -0.260094 -0.016070
			 0.971499 -0.028477 -0.235326
			 0.698290 -0.619256  0.359043
			 0.841600 -0.494412  0.217407
			 0.432903 -0.723095  0.538265
			 0.574435 -0.656824  0.488474
			-0.814420 -0.534739  0.225333
			-0.802057 -0.569651  0.179448
			-0.783216 -0.541418  0.305677
			-0.720446 -0.563314  0.404519
			-0.727387 -0.564289  0.390494
			-0.821677 -0.536040  0.193672
			-0.676138 -0.498966  0.542098
			-0.571846 -0.375276  0.729493
			 0.397085 -0.715718  0.574519
			 0.181325 -0.751312  0.634548
			 0.283458 -0.723970  0.628904
			 0.036226 -0.747089  0.663736
			-0.464968 -0.405461  0.787023
			-0.381016 -0.627210  0.679290
			-0.192435 -0.735083  0.650093
			-0.426596 -0.527527  0.734664
			-0.221433 -0.681904  0.697119
			-0.039537  0.374205 -0.926503
			-0.308870  0.269481 -0.912129
			-0.682403  0.086630 -0.725824
			-0.758648 -0.036846 -0.650458
			-0.784609 -0.033262 -0.619098
			-0.834229 -0.052709 -0.548893
			-0.959441 -0.219423 -0.176994
			-0.909609 -0.078192 -0.408042
			 0.319505  0.579388 -0.749817
			 0.435161  0.432952 -0.789422
			 0.533924  0.455192 -0.712549
			 0.343878  0.403922 -0.847700
			-0.896162 -0.421877  0.137524
			-0.898957 -0.437850  0.012749
			-0.929947 -0.344736  0.127891
			-0.944123 -0.321921  0.070703
			-0.940249 -0.330439  0.082110
			-0.793201 -0.598776  0.110903
			 0.708076  0.548823 -0.444321
			 0.705684  0.527227 -0.473330
			 0.689381  0.488702 -0.534718
			 0.491199  0.561069 -0.666277
			 0.566396  0.508000 -0.648947
			 0.696149  0.484721 -0.529548
			 0.720461  0.497943 -0.482688
			 0.716386  0.448864 -0.534147
			 0.651145  0.344150 -0.676440
			 0.727248  0.525611 -0.441411
			 0.910104  0.074646 -0.407600
			 0.976900 -0.184777 -0.107349
			 0.913042 -0.386813  0.129346
			 0.849325 -0.461979  0.255389
			 0.771966 -0.519152  0.366810
			 0.711476 -0.552611  0.434078
			 0.487711 -0.653327  0.579052
			 0.643397 -0.542615  0.540009
			-0.783002 -0.519317  0.342371
			-0.911076 -0.376208  0.168545
			-0.830135 -0.376320  0.411411
			-0.849204 -0.517123  0.106941
			-0.693369 -0.192397  0.694423
			 0.501896 -0.585608  0.636524
			 0.210346 -0.717307  0.664248
			 0.337388 -0.655513  0.675627
			 0.218286 -0.657586  0.721063
			 0.045457 -0.669852  0.741102
			-0.490387  0.060214  0.869422
			-0.479991 -0.105841  0.870865
			-0.537602 -0.025906  0.842801
			-0.377437 -0.573270  0.727257
			-0.518728 -0.140797  0.843266
			-0.096351  0.358759 -0.928444
			 0.243618  0.397798 -0.884538
			-0.462387  0.223789 -0.857973
			-0.428196  0.361352 -0.828295
			-0.583095  0.268149 -0.766874
			-0.810419  0.027543 -0.585202
			-0.673304  0.203317 -0.710862
			-0.981702 -0.190396  0.003173
			-0.967781 -0.070050 -0.241855
			-0.912745  0.009737 -0.408413
			 0.454680  0.377226 -0.806825
			 0.622309  0.486177 -0.613484
			 0.693707  0.412198 -0.590646
			 0.454262  0.437012 -0.776316
			 0.623590  0.405123 -0.668589
			 0.760845  0.331814 -0.557686
			-0.947326 -0.295355  0.123855
			 0.710473  0.474444 -0.519741
			 0.700931  0.425472 -0.572424
			 0.689361  0.425697 -0.586142
			 0.527578  0.486703 -0.696262
			 0.427378  0.541372 -0.724061
			 0.718027  0.445589 -0.534684
			 0.746831  0.426875 -0.509923
			 0.676001  0.450446 -0.583198
			 0.755240  0.406081 -0.514501
			 0.974774 -0.223084  0.006996
			 0.941033 -0.007714 -0.338227
			 0.951920 -0.248008  0.179837
			 0.853382 -0.435243  0.286884
			 0.736752 -0.495621  0.459953
			 0.657399 -0.461808  0.595449
			 0.801571 -0.376043  0.464840
			-0.791147 -0.197501  0.578861
			-0.483165  0.163506  0.860126
			 0.509898 -0.454991  0.730060
			 0.703583 -0.300950  0.643740
			 0.351592 -0.531972  0.770317
			 0.271995 -0.516985  0.811631
			-0.502817  0.106792  0.857771
			-0.433361 -0.222341  0.873363
			-0.496468  0.301188  0.814129
			-0.146594 -0.568562  0.809473
			 0.059927 -0.622599  0.780243