<?xml version="1.0"?>
<VTKFile type="PolyData" version="0.1" byte_order="LittleEndian" compressor="vtkZLibDataCompressor">
	<PolyData>
		<Piece NumberOfPoints="1279" NumberOfVerts="0" NumberOfLines="0" NumberOfStrips="0" NumberOfPolys="2588">
		<PointData Normals="Normals">
		<DataArray type="Float32" Name="Normals" NumberOfComponents="3" format="ascii">
			 0.680110 -0.725276  0.106884
			 0.637544 -0.593809  0.490844
			 0.731992 -0.558729  0.389883
			 0.443860 -0.889605  0.107665
			 0.654798 -0.485243  0.579465
			 0.428409 -0.723717 -0.541018
			 0.826245 -0.535456 -0.174948
			 0.455197 -0.814680  0.359294
			 0.495500 -0.634222  0.593500
			 0.604262 -0.531574  0.593546
			 0.643856 -0.467182  0.605963
			 0.109736 -0.973687 -0.199730
			 0.837062 -0.543973  0.058488
			 0.587678 -0.578904  0.565247
			 0.602707 -0.322370 -0.729947
			 0.179483 -0.950926  0.252042
			 0.072909 -0.997326 -0.005043
			 0.360892 -0.743533  0.562953
			 0.333566 -0.793308  0.509309
			 0.605378 -0.652445  0.455887
			 0.659862 -0.612445  0.435308
			 0.143660 -0.756370 -0.638174
			-0.048849 -0.780492 -0.623255
			 0.125268 -0.498619 -0.857722
			 0.278620 -0.401193 -0.872591
			 0.812810 -0.237329 -0.531991
			 0.599332 -0.611329  0.516796
			 0.509504 -0.642217  0.572680
			 0.404025 -0.764592  0.502159
			 0.645521 -0.647290  0.405361
			 0.539078 -0.695502  0.475050
			 0.645887 -0.642971  0.411606
			 0.010555 -0.661096 -0.750227
			-0.167027 -0.877778 -0.449008
			-0.097981 -0.648019 -0.755295
			 0.200031 -0.278802 -0.939286
			 0.103394 -0.391508 -0.914347
			 0.014167 -0.555728 -0.831244
			 0.241582 -0.130151 -0.961613
			 0.467619  0.067528 -0.881347
			 0.913999 -0.359273 -0.188489
			 0.685427 -0.622568  0.377622
			 0.817248  0.048754 -0.574220
			-0.110979 -0.991923 -0.061411
			 0.098274 -0.928039  0.359286
			 0.611658 -0.664863  0.428757
			 0.481707 -0.661777  0.574465
			 0.016085 -0.856291  0.516243
			 0.181637 -0.801105  0.570298
			 0.446579 -0.676944  0.585076
			 0.646320 -0.605010  0.465009
			 0.595697 -0.585466  0.549886
			-0.345456 -0.864595 -0.364878
			-0.190394 -0.791227 -0.581128
			 0.238241 -0.248564 -0.938859
			 0.272029 -0.649629 -0.709917
			 0.263305  0.149923 -0.952992
			 0.314037  0.300849 -0.900484
			 0.316843  0.392148 -0.863615
			 0.989759 -0.121586 -0.074799
			 0.617435 -0.591676  0.518357
			 0.583831  0.246768 -0.773464
			 0.757653  0.317973 -0.569961
			-0.026381 -0.891578  0.452099
			 0.617138 -0.567531  0.545022
			 0.734514 -0.506540  0.451560
			 0.667565 -0.661239  0.342228
			-0.223579 -0.855479  0.467085
			-0.199785 -0.843162  0.499163
			 0.316339 -0.668492  0.673089
			 0.207202 -0.721055  0.661171
			 0.749632 -0.161885  0.641752
			 0.650405 -0.429245  0.626675
			 0.532652 -0.534392  0.656283
			-0.412333 -0.863433 -0.290630
			-0.117185 -0.903973 -0.411219
			 0.112155 -0.912085 -0.394363
			 0.304225 -0.787336 -0.536236
			 0.512261 -0.564302 -0.647419
			 0.592378 -0.281693 -0.754809
			 0.462490  0.214326 -0.860330
			 0.611231  0.436610 -0.660127
			 0.255320  0.606711 -0.752804
			 0.513205  0.436130 -0.739196
			 0.421485  0.560641 -0.712764
			-0.145044 -0.968646  0.201712
			-0.255661 -0.887472  0.383446
			 0.806054 -0.352572  0.475363
			-0.480701 -0.807367  0.342176
			-0.503317 -0.808599  0.304696
			-0.406806 -0.847136  0.341861
			-0.409482 -0.851374  0.327851
			-0.068392 -0.836149  0.544222
			-0.269707 -0.876229  0.399351
			 0.253791 -0.765407  0.591390
			 0.014103 -0.852260  0.522929
			 0.369412 -0.667306  0.646713
			 0.616303 -0.441863  0.651864
			 0.756069 -0.268885  0.596708
			 0.798168 -0.006260  0.602402
			-0.472323 -0.866383 -0.162147
			-0.210337 -0.968472 -0.133489
			 0.042787 -0.963544 -0.264105
			 0.462852 -0.610653 -0.642550
			 0.119560 -0.771499 -0.624895
			 0.121537 -0.886700 -0.446085
			 0.599282 -0.394834 -0.696396
			 0.706040  0.178623 -0.685274
			 0.700086  0.567050 -0.433974
			 0.339970  0.685698 -0.643613
			 0.206810  0.667898 -0.714942
			 0.311961  0.685501 -0.657852
			 0.643433  0.493236 -0.585416
			 0.911423  0.304389 -0.276869
			 0.996010  0.023662 -0.086048
			 0.947733 -0.117602  0.296600
			-0.420964 -0.892863  0.159954
			 0.879102  0.071342  0.471265
			 0.842915 -0.230502  0.486172
			-0.588768 -0.795160  0.145165
			-0.566958 -0.787158  0.242776
			-0.581927 -0.767408  0.269159
			-0.565313 -0.792047  0.230396
			-0.522709 -0.813107  0.256188
			-0.012997 -0.880983  0.472970
			-0.334949 -0.874181  0.351592
			 0.432607 -0.592393  0.679648
			 0.598591 -0.540676  0.591065
			 0.579798 -0.488146  0.652340
			 0.680572  0.478391  0.554944
			 0.775006  0.403741  0.486168
			 0.631868  0.608463  0.480120
			 0.932476  0.104991  0.345638
			 0.796963 -0.342252  0.497708
			-0.525013 -0.823526 -0.214863
			-0.566810 -0.823014 -0.037077
			-0.281557 -0.959263 -0.023259
			-0.342764 -0.934967 -0.091380
			-0.168071 -0.881639 -0.440981
			 0.334565 -0.578133 -0.744197
			 0.650106  0.078405 -0.755788
			 0.755563 -0.105054 -0.646597
			 0.771954  0.513186 -0.375136
			 0.675679  0.505185 -0.536885
			 0.666722  0.287002 -0.687831
			 0.779370  0.097144 -0.618988
			 0.563367  0.761270 -0.321069
			 0.222303  0.788973 -0.572802
			 0.405532  0.789263 -0.461094
			 0.658884  0.618726 -0.427843
			 0.908444  0.417558 -0.019377
			-0.522750 -0.827420  0.205205
			-0.428130 -0.899116  0.091084
			-0.408771 -0.863697  0.294845
			-0.528286 -0.802763  0.276559
			-0.586324 -0.776569  0.230575
			-0.559717 -0.798247  0.222527
			-0.495543 -0.830986  0.252781
			-0.473874 -0.840232  0.263542
			-0.475521 -0.838518  0.266020
			-0.369998 -0.856832  0.359083
			-0.158412 -0.881657  0.444507
			-0.503753 -0.824897  0.256471
			 0.404724 -0.724063  0.558508
			 0.155148 -0.824024  0.544898
			 0.307769 -0.768677  0.560727
			 0.663310 -0.550459  0.506966
			 0.875268  0.263942  0.405266
			-0.056254 -0.993326  0.100694
			-0.334182 -0.607203 -0.720852
			-0.060663 -0.821999 -0.566249
			-0.566938 -0.766464 -0.301852
			-0.616701 -0.781317  0.096039
			-0.294146 -0.935855  0.194045
			 0.543694 -0.292235 -0.786763
			 0.115766 -0.442172 -0.889428
			 0.648660  0.657698 -0.382980
			 0.508779  0.076318 -0.857508
			 0.521623  0.511982 -0.682484
			 0.667725 -0.066794 -0.741405
			 0.651141  0.026915 -0.758480
			 0.151772  0.891852 -0.426106
			 0.227874  0.897988 -0.376420
			 0.293031  0.949276 -0.114050
			 0.638141  0.763668 -0.097913
			 0.528432  0.837125 -0.141357
			 0.605853  0.747123 -0.273404
			 0.406346  0.880895 -0.242709
			 0.802471  0.593200 -0.064444
			 0.924652  0.336977  0.177384
			 0.903720  0.260851  0.339481
			 0.655451  0.628784  0.418347
			 0.562369  0.738772  0.371426
			 0.430223  0.785182  0.445417
			-0.361613 -0.883818  0.296819
			-0.528615 -0.789283  0.312409
			-0.479901 -0.804384  0.350231
			-0.629296 -0.729809  0.267143
			-0.748243 -0.644256  0.158323
			-0.656831 -0.735340  0.166878
			 0.183491 -0.828481  0.529102
			-0.378008 -0.848485  0.370381
			-0.072255 -0.860975  0.503489
			-0.285931 -0.868174  0.405607
			-0.591646 -0.771622  0.233567
			 0.386807 -0.742606  0.546732
			 0.813773 -0.396142  0.425258
			 0.785206  0.612358  0.092024
			 0.620265  0.769611  0.151560
			 0.436606  0.855320  0.278933
			 0.396440  0.828991  0.394473
			 0.942307 -0.018998  0.334211
			 0.910788  0.388041  0.141031
			-0.130416 -0.976635  0.170808
			-0.845453 -0.492870 -0.205641
			-0.728426 -0.649684 -0.217500
			-0.731181 -0.534827 -0.423479
			 0.322333 -0.240903 -0.915460
			 0.450225 -0.141948 -0.881560
			-0.321960 -0.306120 -0.895898
			 0.525771  0.633961 -0.567150
			 0.312547  0.790823 -0.526226
			 0.457703  0.830626 -0.317126
			 0.643129  0.747419 -0.166584
			 0.461652  0.253993 -0.849920
			 0.407968  0.467940 -0.783961
			 0.325167  0.667653 -0.669706
			 0.118197 -0.103441 -0.987588
			 0.624128  0.781298  0.006138
			 0.134541  0.970318 -0.200950
			 0.075266  0.953267 -0.292603
			 0.017061  0.997590  0.067258
			 0.251556  0.966953  0.041488
			 0.743453  0.660010  0.108002
			 0.358469  0.846811  0.392953
			-0.553738 -0.775236  0.303947
			-0.782999 -0.607464  0.133790
			-0.850503 -0.506470  0.141889
			-0.765733 -0.600058  0.231479
			-0.881496 -0.468494  0.058981
			-0.788262 -0.609180  0.086852
			-0.772456 -0.627487  0.097837
			-0.424316 -0.840993  0.335689
			 0.370247 -0.762367  0.530767
			 0.207122 -0.818519  0.535843
			-0.411145 -0.841427  0.350658
			-0.312780 -0.850922  0.422020
			-0.006450 -0.853987  0.520255
			-0.597685 -0.768061  0.229904
			-0.764020 -0.632924  0.125224
			 0.580680 -0.615581  0.532795
			 0.564480 -0.648699  0.510442
			 0.628899 -0.616301  0.473982
			 0.912981 -0.268661  0.307060
			 0.770450  0.632157 -0.082364
			 0.475026  0.879274  0.035044
			 0.568704  0.801107 -0.186557
			 0.313365  0.909084  0.274535
			-0.873472 -0.472695 -0.116643
			-0.726163 -0.675951  0.125610
			-0.806657 -0.275042 -0.523123
			-0.699988 -0.242341 -0.671780
			 0.095968  0.908415 -0.406906
			 0.470309  0.882502  0.000779
			 0.081758  0.142925 -0.986351
			 0.025169  0.620556 -0.783758
			 0.337885  0.920709  0.195265
			 0.130213  0.981357  0.141363
			 0.171245  0.973614  0.150836
			 0.371229  0.920334  0.123189
			 0.247636  0.905575  0.344398
			-0.876781 -0.473990  0.081165
			-0.934116 -0.356819 -0.010382
			-0.926380 -0.376304  0.014710
			-0.869765 -0.493281  0.013487
			-0.855451 -0.515908  0.045199
			-0.521233 -0.791653  0.318749
			-0.616417 -0.752077  0.233260
			 0.449464 -0.720008  0.528745
			 0.353994 -0.741574  0.569874
			 0.284489 -0.765378  0.577289
			 0.161576 -0.812399  0.560268
			-0.398316 -0.831538  0.387155
			-0.491803 -0.792839  0.359911
			-0.175132 -0.862501  0.474786
			 0.155198 -0.799024  0.580925
			-0.052315 -0.848628  0.526397
			-0.911448 -0.410477 -0.027763
			-0.737677 -0.651998  0.175306
			-0.869676 -0.492270  0.036529
			 0.973091  0.162563  0.163303
			 0.780243 -0.452953  0.431340
			 0.451154 -0.700635  0.552783
			 0.655611  0.740074 -0.149881
			 0.424914  0.847507 -0.318088
			 0.286112  0.936868 -0.201043
			 0.491805  0.793853 -0.357667
			 0.616009  0.740491 -0.268714
			 0.875582  0.481231  0.042098
			 0.752614  0.653607 -0.079808
			-0.936207 -0.193068 -0.293669
			-0.932525 -0.276024 -0.232827
			-0.937210 -0.267595 -0.223677
			-0.919686 -0.085893 -0.383144
			-0.854187 -0.114235 -0.507262
			-0.569184 -0.143241 -0.809636
			-0.457667 -0.053571 -0.887508
			-0.126166  0.743677 -0.656526
			 0.122151  0.958674 -0.256950
			 0.299890  0.944676 -0.132869
			-0.099672  0.335491 -0.936756
			 0.314717  0.903982  0.289431
			 0.338563  0.899848  0.275042
			 0.353859  0.930275  0.096814
			 0.481437  0.870494  0.102264
			 0.117792  0.990409  0.072220
			 0.073982  0.990501 -0.115904
			-0.927357 -0.323442 -0.188133
			-0.963489 -0.265896 -0.031436
			-0.987539 -0.130395 -0.088109
			-0.958167 -0.262521 -0.114012
			-0.949985 -0.259159 -0.174255
			-0.902985 -0.428569 -0.030773
			-0.618088 -0.736655  0.274419
			 0.314682 -0.748714  0.583441
			-0.528559 -0.777344  0.341119
			-0.264216 -0.856405  0.443576
			-0.084674 -0.837044  0.540544
			-0.945339 -0.315389 -0.082851
			-0.965961 -0.208706 -0.152844
			-0.765616 -0.621956  0.164327
			-0.850939 -0.519063  0.080479
			 0.943097  0.328229  0.053232
			 0.663689 -0.537614  0.520085
			 0.565951 -0.616542  0.547335
			 0.985638  0.147297  0.082596
			 0.705522  0.683234 -0.188229
			 0.202082  0.942652 -0.265649
			 0.295073  0.874637 -0.384633
			 0.592663  0.744936 -0.306302
			 0.498856  0.754249 -0.426910
			 0.473786  0.775028 -0.418161
			 0.449592  0.795948 -0.405382
			 0.448995  0.811396 -0.374219
			 0.772569  0.626795 -0.101320
			 0.838908  0.544271  0.001602
			 0.917949  0.395263  0.033718
			-0.922315  0.029162 -0.385337
			-0.840954 -0.033048 -0.540097
			-0.522034  0.080483 -0.849119
			-0.359469  0.705608 -0.610655
			 0.008455  0.922651 -0.385542
			-0.574503  0.371724 -0.729224
			-0.772530  0.218024 -0.596375
			 0.308953  0.939664  0.146898
			 0.169559  0.979974 -0.104401
			 0.322704  0.902276  0.285936
			-0.279684  0.412457 -0.866981
			 0.292717  0.917974  0.267656
			 0.482427  0.874877  0.043065
			 0.334033  0.907664 -0.254101
			-0.879705 -0.286056 -0.379858
			-0.892448 -0.204754 -0.402010
			-0.913095 -0.149148 -0.379489
			-0.987088 -0.023359 -0.158469
			-0.949379  0.165118 -0.267238
			-0.948640  0.037860 -0.314084
			-0.967924 -0.004317 -0.251206
			-0.922945 -0.198437 -0.329842
			 0.285561 -0.754730  0.590624
			 0.350222 -0.735602  0.579857
			 0.280201 -0.760275  0.586063
			 0.106715 -0.812805  0.572678
			-0.080367 -0.836417  0.542170
			-0.689698 -0.680333  0.247918
			-0.314229 -0.834719  0.452221
			-0.429453 -0.806062  0.407227
			-0.530844 -0.766002  0.362554
			-0.692017 -0.664194  0.282771
			-0.955542 -0.258487 -0.141860
			-0.929941 -0.363853 -0.053113
			-0.930746 -0.364209 -0.032606
			-0.943312  0.019295 -0.331346
			-0.909156  0.080185 -0.408664
			-0.788647 -0.593533  0.160481
			-0.883618 -0.464232  0.060883
			 0.984872  0.141212  0.100434
			 0.942519 -0.187148  0.276828
			 0.545689  0.752000 -0.369756
			 0.671732  0.705262 -0.226677
			 0.384676  0.815972 -0.431525
			 0.278824  0.833232 -0.477474
			 0.355316  0.821830 -0.445361
			 0.465124  0.789265 -0.400900
			 0.483433  0.780208 -0.396949
			 0.477175  0.811465 -0.337384
			 0.435995  0.848612 -0.299608
			 0.377576  0.865025 -0.330406
			 0.246414  0.893473 -0.375482
			 0.723758  0.667317 -0.175680
			 0.844476  0.528071 -0.089445
			 0.773661  0.618795 -0.136169
			-0.883591 -0.122439 -0.451969
			-0.918654 -0.052565 -0.391551
			-0.831787 -0.015512 -0.554878
			-0.547212  0.152536 -0.822977
			-0.519714  0.646002 -0.559087
			 0.421798  0.875782  0.234716
			-0.369531  0.914458 -0.164962
			-0.318005  0.858415 -0.402488
			 0.209702  0.974676  0.077667
			 0.398261  0.916781  0.030024
			 0.559287  0.810475 -0.174150
			 0.536930  0.820115 -0.197782
			 0.579117  0.812999 -0.060462
			 0.117852  0.957278 -0.264063
			-0.857929 -0.184891 -0.479346
			-0.934863  0.245477 -0.256460
			-0.714659  0.546778 -0.436230
			-0.868214  0.275051 -0.412978
			-0.913730  0.049718 -0.403269
			 0.359209 -0.733166  0.577440
			 0.183352 -0.788850  0.586598
			 0.363265 -0.715269  0.597017
			-0.103470 -0.846992  0.521439
			 0.048867 -0.813570  0.579410
			-0.300405 -0.840354  0.451178
			-0.762856 -0.624307  0.168200
			-0.762981 -0.613353  0.204105
			-0.535323 -0.771135  0.344646
			-0.957625 -0.268789 -0.103469
			-0.952992 -0.066643 -0.295576
			-0.966343 -0.180720 -0.183088
			-0.970350 -0.198896 -0.137339
			-0.922878  0.116792 -0.366954
			-0.800306  0.292894 -0.523186
			-0.963464 -0.250970 -0.093550
			-0.862549 -0.498886  0.084392
			-0.919425 -0.393254 -0.003033
			-0.956734 -0.275520 -0.093531
			 0.527028 -0.653463  0.543348
			 0.826736 -0.367614  0.425873
			 0.656082  0.709348 -0.257647
			 0.484050  0.776915 -0.402615
			 0.607869  0.722549 -0.329270
			 0.162055  0.867553 -0.470202
			 0.217861  0.840927 -0.495357
			 0.274482  0.832077 -0.481983
			 0.388871  0.813371 -0.432675
			 0.419216  0.884397 -0.205181
			 0.420494  0.892403 -0.163714
			 0.309144  0.907612 -0.284025
			 0.174894  0.919124 -0.353020
			-0.290250  0.833986 -0.469278
			 0.868774  0.483031 -0.109145
			 0.866508  0.466575 -0.177405
			 0.760499  0.599861 -0.248612
			 0.730803  0.648899 -0.211795
			-0.903232 -0.156897 -0.399444
			-0.856462 -0.117688 -0.502616
			-0.860777 -0.072988 -0.503721
			-0.864188 -0.053543 -0.500312
			-0.852741  0.143084 -0.502354
			 0.368058  0.873467  0.318731
			 0.454028  0.890070  0.040429
			-0.237779  0.967160 -0.089788
			 0.344495  0.938673 -0.014672
			-0.854333 -0.048217 -0.517485
			-0.857543  0.415817 -0.302846
			-0.725371  0.596754 -0.343106
			-0.691651  0.489665 -0.530892
			-0.617569  0.590589 -0.519435
			-0.882159  0.098776 -0.460476
			-0.848428  0.441895 -0.291375
			 0.463550 -0.654491  0.597297
			 0.181509 -0.793033  0.581510
			 0.642029 -0.521676  0.561829
			 0.334472 -0.740313  0.583150
			 0.236262 -0.780251  0.579128
			 0.442137 -0.678230  0.586957
			 0.058349 -0.815022  0.576484
			-0.366013 -0.822966  0.434466
			-0.111701 -0.838508  0.533317
			-0.631189 -0.721717  0.284122
			-0.979628 -0.118560 -0.162089
			-0.647364  0.433561 -0.626853
			-0.977453 -0.131823 -0.164948
			-0.887428 -0.458751  0.044927
			-0.968090 -0.217294 -0.124837
			-0.930050 -0.364972 -0.042465
			-0.976834 -0.094161 -0.192172
			 0.960764 -0.111780  0.253845
			 0.973151  0.223073 -0.056709
			 0.608898  0.718737 -0.335650
			 0.519756  0.754161 -0.401365
			 0.722374  0.632280 -0.279997
			-0.321856  0.772423 -0.547514
			 0.004190  0.824483 -0.565871
			 0.179240  0.858260 -0.480897
			 0.321150  0.786591 -0.527387
			 0.241947  0.786146 -0.568714
			 0.322373  0.812225 -0.486175
			 0.188834  0.960913 -0.202455
			-0.113091  0.923391 -0.366824
			-0.346213  0.829118 -0.438977
			 0.800456  0.569627 -0.186536
			 0.818218  0.549822 -0.167974
			-0.916778 -0.165716 -0.363395
			-0.875121  0.184706 -0.447265
			-0.800439  0.287409 -0.526016
			-0.736756  0.659328 -0.149923
			-0.353503  0.907478 -0.226979
			-0.578091  0.746247 -0.330039
			-0.406932  0.675977 -0.614379
			-0.680732  0.686367 -0.255937
			 0.078657 -0.811945  0.578410
			 0.171032 -0.795269  0.581632
			-0.041403 -0.835339  0.548174
			 0.272798 -0.765335  0.582961
			 0.366615 -0.728577  0.578592
			 0.348760 -0.730317  0.587370
			 0.253256 -0.768345  0.587799
			 0.709068 -0.464356  0.530656
			 0.406974 -0.710298  0.574325
			 0.458235 -0.670296  0.583715
			 0.561962 -0.596718  0.572823
			-0.416085 -0.813384  0.406546
			-0.266546 -0.831453  0.487482
			-0.809387 -0.569080  0.145056
			-0.862225 -0.499120  0.086301
			-0.972970 -0.110028 -0.203036
			-0.926314  0.142666 -0.348695
			-0.925106  0.068864 -0.373412
			-0.409262  0.621411 -0.668097
			-0.775686  0.375931 -0.506938
			-0.073767  0.725475 -0.684284
			-0.941688 -0.330874 -0.061200
			-0.960553  0.052624 -0.273071
			-0.905677 -0.422985  0.028866
			 0.980381  0.022446  0.195828
			 0.404102  0.805024 -0.434324
			 0.430743  0.762616 -0.482574
			 0.111264  0.710287 -0.695063
			 0.099700  0.722974 -0.683643
			 0.429541  0.723921 -0.539846
			 0.564818  0.724142 -0.395726
			 0.386129  0.812280 -0.437155
			 0.684675  0.597108 -0.417951
			 0.649211  0.689563 -0.320980
			 0.643759  0.694021 -0.322350
			 0.726052  0.596425 -0.342235
			 0.827044  0.540855 -0.153214
			 0.747073  0.619977 -0.239814
			-0.238805  0.933281 -0.268250
			 0.008319 -0.828289  0.560240
			-0.201902 -0.830810  0.518642
			 0.362553 -0.713584  0.599460
			 0.933652 -0.117774  0.338265
			 0.813842 -0.355970  0.459290
			 0.654267 -0.517167  0.551790
			 0.457624 -0.662422  0.593108
			 0.601644 -0.561130  0.568469
			-0.520038 -0.774253  0.360685
			-0.525755 -0.773161  0.354687
			-0.506332 -0.779447  0.368903
			-0.496879 -0.771653  0.397067
			-0.863183 -0.494804  0.100418
			-0.783143 -0.599677  0.164541
			-0.617354 -0.725439  0.304321
			-0.816050  0.338938 -0.468171
			-0.943954 -0.327533 -0.040908
			-0.975056 -0.157963 -0.155926
			-0.969781 -0.191412 -0.151281
			-0.663411  0.511152 -0.546452
			-0.903594  0.218380 -0.368548
			-0.963620 -0.030698 -0.265508
			-0.947035  0.097489 -0.305974
			-0.886488 -0.459189  0.057319
			 0.882321  0.420539 -0.211320
			 0.957358  0.284749  0.048833
			 0.545524  0.761640 -0.349726
			-0.197190  0.714525 -0.671245
			 0.330651  0.756511 -0.564235
			 0.585066  0.736657 -0.339167
			 0.521891  0.769584 -0.367927
			 0.447728  0.796871 -0.405629
			 0.664442  0.680181 -0.309630
			 0.729281  0.586902 -0.351703
			 0.097211 -0.821938  0.561220
			-0.006494 -0.824896  0.565247
			 0.298418 -0.756489  0.581954
			-0.182222 -0.830554  0.526284
			 0.981142  0.131924  0.141264
			 0.983406  0.047413  0.175112
			 0.819194 -0.341628  0.460666
			 0.618799 -0.562739  0.548099
			 0.479320 -0.685544  0.547980
			 0.857258 -0.287719  0.426997
			 0.752432 -0.416633  0.510161
			 0.900479 -0.213807  0.378713
			 0.714783 -0.447957  0.537047
			-0.650146 -0.707353  0.277419
			-0.703658 -0.668844  0.239819
			-0.366156 -0.810899  0.456478
			-0.555610 -0.748674  0.361641
			-0.724811 -0.651737  0.223355
			-0.754766 -0.621546  0.209783
			-0.858280 -0.507584  0.075589
			-0.774071 -0.608650  0.174240
			-0.530691  0.601586 -0.597044
			-0.463835  0.624302 -0.628573
			-0.516303  0.615268 -0.595715
			-0.398906  0.674840 -0.620858
			-0.931360 -0.363238 -0.025047
			-0.732301  0.447902 -0.512952
			-0.969153 -0.169593 -0.178831
			-0.959407 -0.003092 -0.282008
			-0.846796  0.318609 -0.425940
			 0.646072  0.655364 -0.391266
			 0.874844  0.466073 -0.131997
			-0.054575  0.743350 -0.666673
			-0.020478  0.763863 -0.645053
			 0.694129  0.651833 -0.305449
			 0.547414  0.755827 -0.359254
			 0.421794  0.779281 -0.463478
			 0.317621  0.801263 -0.507044
			 0.098296  0.844185 -0.526963
			 0.566596  0.711054 -0.416377
			 0.493854  0.772629 -0.398939
			 0.412164  0.757457 -0.506340
			 0.522076  0.741815 -0.420889
			 0.802130  0.549850 -0.232924
			 0.154542 -0.811042  0.564206
			 0.025020 -0.830644  0.556242
			 0.334211 -0.761832  0.554901
			 0.481520 -0.716329  0.504986
			-0.126056 -0.837117  0.532302
			 0.825824 -0.342706  0.447847
			 0.767141 -0.477823  0.427995
			 0.593856 -0.624427  0.507371
			 0.982789  0.055570  0.176177
			 0.962584  0.270933 -0.005324
			-0.830663 -0.544226  0.117547
			-0.598521 -0.724586  0.341684
			-0.313347 -0.828982  0.463251
			-0.703858 -0.662222  0.256994
			-0.828188 -0.544348  0.133377
			-0.849496 -0.518258  0.098818
			-0.837810 -0.534185  0.112789
			-0.924909 -0.378907 -0.031178
			-0.882215 -0.468991  0.041764
			-0.191204  0.746794 -0.636977
			-0.221869  0.773598 -0.593566
			-0.330692  0.720172 -0.609914
			-0.423632  0.652561 -0.628251
			-0.964984 -0.222294 -0.139252
			-0.975384 -0.107168 -0.192718
			-0.973731 -0.135501 -0.182997
			-0.972620 -0.155292 -0.172904
			-0.826243  0.314609 -0.467273
			-0.892756  0.173391 -0.415839
			-0.936218  0.045359 -0.348481
			-0.919936  0.105370 -0.377643
			-0.965651 -0.123864 -0.228420
			 0.747821  0.614693 -0.250831
			 0.637258  0.696861 -0.329069
			 0.780138  0.579782 -0.235026
			-0.035986  0.768149 -0.639259
			 0.347689  0.798009 -0.492234
			 0.459000  0.727168 -0.510437
			 0.574774  0.698752 -0.425887
			 0.712585  0.651801 -0.259574
			 0.760270  0.591828 -0.267823
			 0.613808  0.703777 -0.357683
			 0.482283  0.775773 -0.406914
			 0.312682 -0.803761  0.506161
			 0.195859 -0.835951  0.512665
			 0.060335 -0.861617  0.503961
			-0.203943 -0.849121  0.487238
			 0.633906 -0.657478  0.407292
			 0.419362 -0.776154  0.470872
			 0.636959 -0.628736  0.446066
			 0.926897  0.371766 -0.051495
			 0.779675  0.578258 -0.240259
			 0.849252  0.488482 -0.200392
			 0.966416 -0.128367  0.222626
			 0.733704 -0.547163  0.402854
			 0.887178 -0.385036  0.254286
			 0.957449  0.284121 -0.050651
			-0.895854 -0.442609  0.039283
			-0.631008 -0.716340  0.297802
			-0.794200 -0.578197  0.186906
			-0.800275 -0.577126  0.162745
			-0.430509 -0.814019  0.389917
			-0.880792 -0.468306  0.069958
			-0.918978 -0.393451  0.026011
			-0.889104 -0.455277  0.047092
			-0.908650 -0.417286  0.015072
			-0.903970 -0.427594  0.000608
			-0.089705  0.792500 -0.603239
			-0.056087  0.779968 -0.623302
			 0.015904  0.769842 -0.638036
			-0.263558  0.734373 -0.625486
			-0.948557 -0.310641 -0.061178
			-0.956788 -0.283580 -0.064331
			-0.963156 -0.249649 -0.100033
			-0.451478  0.555050 -0.698632
			-0.746363  0.356949 -0.561720
			-0.872333  0.182305 -0.453652
			-0.727687  0.338008 -0.596843
			-0.904980  0.126402 -0.406244
			-0.950454 -0.043374 -0.307824
			-0.961969 -0.202940 -0.182839
			-0.959910 -0.119688 -0.253470
			 0.661397  0.662771 -0.351123
			 0.793336  0.557823 -0.243826
			 0.472029  0.760294 -0.446254
			 0.460129  0.744224 -0.484161
			 0.491465  0.723758 -0.484392
			 0.472520  0.688032 -0.550760
			 0.430210  0.727086 -0.535037
			 0.779573  0.565329 -0.269574
			 0.812676  0.540003 -0.218986
			 0.500552  0.738108 -0.452378
			 0.241779 -0.865651  0.438395
			 0.190273 -0.858340  0.476497
			-0.133842 -0.851988  0.506166
			 0.039691 -0.871533  0.488728
			 0.421612 -0.807279  0.412969
			 0.595208 -0.729569  0.336834
			 0.801824  0.554008 -0.223949
			 0.661765  0.663180 -0.349656
			 0.742158  0.596662 -0.305282
			 0.658649 -0.619307  0.427364
			 0.998686  0.028136 -0.042842
			 0.806128 -0.512985  0.294963
			 0.928774 -0.346979  0.130326
			 0.901155  0.408810 -0.144205
			 0.760061  0.577750 -0.297512
			-0.925337 -0.379005 -0.010302
			-0.741321 -0.637193  0.210781
			-0.808490 -0.565501  0.162948
			-0.868719 -0.490434  0.069286
			-0.514401 -0.775464  0.366123
			-0.923708 -0.383092 -0.002201
			-0.958207 -0.254221 -0.131194
			-0.930694 -0.363417 -0.041674
			-0.945017 -0.315340 -0.086616
			-0.909026 -0.415864 -0.026988
			 0.182420  0.766787 -0.615436
			-0.797055  0.243018 -0.552852
			-0.482637  0.494589 -0.722803
			-0.930741  0.022318 -0.364998
			-0.947784 -0.022587 -0.318111
			-0.915072 -0.012950 -0.403082
			-0.943231 -0.285370 -0.169937
			 0.628294  0.658231 -0.414702
			 0.571391  0.654640 -0.494933
			 0.503219  0.681672 -0.531125
			 0.504222  0.672243 -0.542079
			 0.515312  0.641405 -0.568377
			 0.484528  0.673657 -0.558049
			 0.494968  0.676674 -0.545086
			 0.346741  0.760178 -0.549454
			 0.471395  0.681382 -0.559916
			 0.701065  0.617167 -0.357230
			 0.757511  0.564215 -0.328387
			 0.666365  0.646823 -0.370914
			 0.018530 -0.908670  0.417104
			 0.057993 -0.881757  0.468126
			 0.347474 -0.865235  0.361429
			 0.213039 -0.888228  0.407020
			-0.089687 -0.851634  0.516406
			-0.388371 -0.800840  0.455877
			-0.380229 -0.779482  0.497829
			 0.541841 -0.777704  0.318724
			 0.442024 -0.824022  0.354404
			 0.648798 -0.718890  0.249516
			 0.690402 -0.677732  0.253030
			 0.626108 -0.732468  0.267357
			 0.542657  0.704662 -0.457138
			 0.955237  0.286491 -0.073794
			 0.994823 -0.062604 -0.080052
			 0.853499 -0.498922  0.150387
			 0.970675 -0.236640 -0.042322
			 0.740897  0.571510 -0.352771
			 0.826290  0.507658 -0.243985
			-0.860939 -0.501263  0.086709
			-0.799399 -0.570198  0.189304
			-0.691113 -0.660134  0.294255
			-0.929239 -0.355140 -0.101930
			 0.159893  0.735386 -0.658515
			 0.168946  0.671455 -0.721530
			-0.065054  0.589034 -0.805485
			-0.891468 -0.055047 -0.449728
			-0.926591 -0.154154 -0.343024
			-0.916825 -0.376400 -0.133246
			-0.911291 -0.362428 -0.195434
			-0.912959 -0.384387 -0.136937
			 0.620697  0.651683 -0.435941
			 0.524144  0.637887 -0.564246
			 0.511220  0.658424 -0.552388
			 0.501756  0.658743 -0.560624
			 0.513622  0.642038 -0.569192
			 0.417206  0.606094 -0.677192
			 0.620727  0.565734 -0.542811
			 0.802172  0.515647 -0.301046
			 0.843088  0.454857 -0.286894
			 0.778413  0.531173 -0.334558
			 0.039920 -0.883239  0.467220
			-0.102528 -0.856569  0.505745
			 0.303665 -0.871696  0.384621
			 0.408363 -0.844000  0.347712
			-0.229698 -0.784072  0.576603
			-0.620191 -0.695505  0.362818
			-0.484617 -0.658029  0.576319
			 0.512151 -0.787388  0.343106
			 0.579330 -0.745683  0.329141
			 0.592068 -0.756939  0.276586
			 0.749953 -0.656559  0.080631
			 0.618193 -0.739081  0.267576
			 0.760363  0.545663 -0.352277
			 0.839134  0.447908 -0.308598
			 0.925028  0.289195 -0.246350
			 0.896936  0.265137 -0.353849
			 0.893000 -0.449235 -0.027192
			 0.752062  0.565601 -0.338376
			-0.871289 -0.488630  0.045790
			-0.888030 -0.459786  0.000018
			-0.860171 -0.500600  0.097502
			-0.842181 -0.521882  0.135542
			-0.706175 -0.642250  0.298048
			-0.794299 -0.563037  0.228206
			-0.902452 -0.419609 -0.097512
			 0.181064  0.649144 -0.738802
			-0.834459  0.045193 -0.549213
			-0.623198  0.316230 -0.715279
			-0.329219  0.476141 -0.815417
			 0.281355  0.616007 -0.735781
			-0.894690 -0.077896 -0.439844
			-0.911900 -0.227153 -0.341819
			-0.916017 -0.282289 -0.285001
			-0.928534 -0.307894 -0.207427
			 0.682954  0.590225 -0.430359
			 0.645063  0.568233 -0.510886
			 0.532122  0.634389 -0.560711
			 0.488198  0.640201 -0.593132
			 0.481573  0.657479 -0.579490
			 0.527546  0.614776 -0.586298
			 0.517733  0.627810 -0.581212
			 0.540266  0.620008 -0.568948
			 0.551665  0.574067 -0.605073
			 0.674611  0.515859 -0.528006
			 0.082560 -0.871477  0.483438
			-0.069278 -0.756073  0.650811
			 0.267196 -0.872402  0.409293
			 0.418101 -0.820523  0.389787
			-0.157835 -0.664142  0.730756
			-0.302456 -0.657215  0.690354
			-0.578791 -0.688090  0.437644
			-0.560955 -0.658968  0.501089
			-0.580248 -0.618528  0.529844
			-0.455745 -0.611313  0.646988
			 0.450793 -0.734295  0.507540
			 0.590580 -0.778574  0.212220
			 0.671159 -0.729623  0.131133
			 0.807914 -0.586808 -0.054138
			 0.615772 -0.676240  0.404382
			 0.627024 -0.725592  0.283473
			 0.931957  0.024383 -0.361749
			 0.816501  0.301707 -0.492239