<?xml version="1.0"?>
<VTKFile type="PolyData" version="0.1" byte_order="LittleEndian" compressor="vtkZLibDataCompressor">
	<PolyData>
		<Piece NumberOfPoints="383" NumberOfVerts="0" NumberOfLines="0" NumberOfStrips="0" NumberOfPolys="784">
		<PointData Normals="Normals">
		<DataArray type="Float32" Name="Normals" NumberOfComponents="3" format="ascii">
			 0.056633 -0.629250 -0.775137
			 0.123443 -0.345759 -0.930168
			 0.404368 -0.498041 -0.767100
			-0.073993 -0.602950 -0.794341
			 0.084359 -0.819497 -0.566840
			-0.109410 -0.709709 -0.695947
			 0.168116  0.362789 -0.916581
			-0.121792 -0.242191 -0.962554
			 0.451665  0.024609 -0.891848
			 0.727532  0.128237 -0.673983
			 0.752557 -0.194740 -0.629073
			 0.441546 -0.754477 -0.485593
			-0.345091 -0.435696 -0.831313
			-0.109150 -0.832019 -0.543903
			-0.025497 -0.870980 -0.490657
			 0.134457 -0.891896 -0.431790
			-0.310644 -0.596118 -0.740367
			-0.114985  0.458764 -0.881087
			 0.565181  0.565135 -0.600994
			 0.021596  0.959643 -0.280390
			-0.449014  0.123516 -0.884946
			 0.863563  0.220514 -0.453467
			 0.722233  0.615552 -0.315397
			 0.777394 -0.297286 -0.554328
			 0.921968  0.179610 -0.343096
			 0.473051 -0.770877 -0.426581
			-0.614750  0.248491 -0.748555
			-0.249616 -0.825815 -0.505689
			 0.026845 -0.824079 -0.565839
			 0.174513 -0.859691 -0.480081
			 0.376803 -0.815768 -0.438796
			-0.623067 -0.189017 -0.758986
			-0.786115 -0.382116 -0.485809
			-0.318805  0.797158 -0.512740
			 0.473008  0.848714 -0.236534
			 0.010161  0.998880  0.046201
			-0.140168  0.989803 -0.025344
			-0.013530  0.970834  0.239372
			 0.007999  0.986483  0.163671
			-0.700500  0.697031 -0.153127
			 0.833861  0.540265 -0.113090
			 0.441659  0.893974  0.075816
			 0.695230 -0.601480 -0.393545
			 0.750326  0.659491 -0.045640
			 0.914683  0.349284 -0.203360
			 0.876685 -0.377652 -0.297998
			-0.520005  0.803870 -0.288771
			-0.899261  0.194465 -0.391808
			-0.033641 -0.826279 -0.562256
			-0.169196 -0.841266 -0.513463
			-0.501356 -0.797854 -0.334770
			-0.514875 -0.772217 -0.372270
			-0.792586 -0.439922 -0.422227
			 0.105461 -0.820938 -0.561194
			 0.656967 -0.658533 -0.367054
			 0.366924 -0.763332 -0.531686
			-0.910779  0.332661 -0.244579
			-0.408810  0.912397 -0.020131
			 0.311930  0.949138  0.042847
			-0.300585  0.932483  0.200310
			 0.019142  0.914525  0.404075
			 0.206891  0.923450  0.323167
			-0.557336  0.828955  0.047015
			-0.684188  0.720596  0.112373
			 0.503672  0.836533  0.215700
			 0.761243  0.645796  0.058799
			 0.949931  0.260677 -0.172274
			 0.987680 -0.116090 -0.104935
			-0.436529 -0.793258 -0.424481
			 0.068390 -0.831337 -0.551544
			 0.022139 -0.844099 -0.535730
			-0.166064 -0.847465 -0.504208
			-0.653311 -0.734401 -0.183954
			-0.843756 -0.480334 -0.239490
			-0.770042 -0.607272 -0.195591
			-0.774657 -0.603465 -0.189043
			-0.668125 -0.659403 -0.344668
			-0.971698  0.175462 -0.158165
			 0.642867 -0.638815 -0.422656
			 0.883528 -0.422635 -0.201888
			 0.871390 -0.424260 -0.246340
			 0.149787 -0.832383 -0.533575
			 0.612727 -0.635730 -0.469482
			 0.346985 -0.785643 -0.512217
			 0.027215  0.825230  0.564141
			-0.222914  0.859581  0.459815
			 0.089482  0.904566  0.416838
			-0.072134  0.876183  0.476550
			 0.453407  0.837115  0.306039
			-0.657229  0.695107  0.291337
			-0.995736  0.060221 -0.069881
			 0.830985  0.554702  0.042063
			 0.809610  0.547450  0.211731
			 0.986992  0.109973  0.117269
			 0.989796 -0.061251  0.128659
			 0.149192 -0.834298 -0.530744
			-0.055147 -0.851699 -0.521122
			-0.417404 -0.794696 -0.440718
			-0.913447 -0.398715 -0.081489
			-0.813953 -0.580029  0.032352
			-0.847461 -0.530756 -0.010352
			-0.906051 -0.405156 -0.122148
			-0.794956 -0.556133 -0.242405
			 0.779343 -0.473559 -0.410324
			 0.655588 -0.569734 -0.495588
			 0.962895 -0.125234 -0.239061
			 0.981288  0.179934  0.068535
			 0.395459 -0.766277 -0.506390
			-0.255742  0.852197  0.456460
			 0.075964  0.853144  0.516115
			-0.043133  0.817236  0.574687
			-0.038560  0.827427  0.560249
			 0.005383  0.808274  0.588782
			 0.365453  0.792375  0.488452
			 0.599807  0.752984  0.270641
			-0.349119  0.814180  0.463926
			-0.812847  0.477899  0.333006
			-0.988430  0.082800  0.127082
			 0.793813  0.418042  0.441705
			 0.851205  0.307820  0.425085
			 0.829933  0.406902  0.381629
			 0.152624 -0.830240 -0.536104
			-0.441179 -0.716550 -0.540294
			-0.104023 -0.843328 -0.527236
			 0.078632 -0.843156 -0.531888
			-0.669284 -0.559311 -0.489111
			-0.751413 -0.597942 -0.279004
			-0.986115 -0.120047  0.114743
			-0.949148 -0.218941  0.226236
			-0.865408 -0.052965  0.498261
			-0.994316 -0.084676 -0.064544
			-0.856753 -0.444378 -0.261731
			 0.454774 -0.717761 -0.527257
			 0.345239 -0.748311 -0.566428
			 0.535627 -0.632853 -0.559107
			 0.885981 -0.204016 -0.416432
			 0.937772  0.346072 -0.028593
			 0.919327  0.311612 -0.240283
			 0.603527  0.671891  0.429322
			 0.826275  0.542737  0.150685
			 0.259329 -0.801456 -0.538903
			-0.032683  0.826462  0.562043
			-0.012675  0.837604  0.546131
			-0.332579  0.790352  0.514523
			-0.225775  0.768279  0.598977
			-0.054030  0.837201  0.544220
			 0.262908  0.782450  0.564493
			-0.520388  0.590372  0.616974
			-0.792027  0.336811  0.509168
			-0.600928 -0.593558 -0.535326
			 0.107279 -0.823108 -0.557660
			-0.207383 -0.783253 -0.586094
			-0.715626 -0.553615 -0.425899
			-0.905420  0.277221  0.321503
			-0.760627  0.255018  0.597003
			-0.930765 -0.227145 -0.286499
			-0.887606  0.447409  0.109455
			-0.982870  0.162439 -0.087067
			 0.602388 -0.589986 -0.537629
			 0.280733 -0.747401 -0.602147
			 0.891622  0.201761 -0.405342
			 0.683552 -0.411143 -0.603090
			 0.924673  0.058796 -0.376196
			 0.808354  0.582539 -0.084925
			 0.619818  0.764386  0.177594
			 0.887196  0.318689 -0.333649
			 0.746069  0.660303 -0.085914
			 0.780081  0.618767 -0.092741
			 0.099660  0.862310  0.496477
			 0.279712  0.894404  0.349003
			 0.047258  0.929689  0.365300
			-0.097674  0.874648  0.474816
			-0.111368  0.901872  0.417402
			-0.543547  0.637826  0.545651
			-0.216966  0.835261  0.505238
			-0.582293 -0.608656 -0.538954
			 0.073614 -0.769418 -0.634490
			-0.144974 -0.686562 -0.712472
			-0.404427 -0.670046 -0.622477
			-0.829443 -0.343298 -0.440648
			-0.729748  0.618564  0.291285
			-0.975022  0.009906 -0.221888
			-0.980699  0.169306 -0.097800
			-0.936687  0.333401 -0.107059
			-0.491378  0.833751  0.251807
			-0.740522  0.656288  0.144613
			 0.435560 -0.637915 -0.635099
			 0.271703 -0.646274 -0.713097
			 0.461229 -0.604651 -0.649357
			 0.459796 -0.457996 -0.760807
			 0.643244 -0.324393 -0.693546
			 0.805907 -0.020245 -0.591696
			 0.587810  0.806891  0.058368
			 0.221468  0.933686  0.281393
			 0.321199  0.921565  0.218058
			 0.782994  0.516997 -0.345883
			 0.758182  0.256313 -0.599553
			 0.409783  0.886901  0.213273
			 0.465483  0.832491  0.300473
			 0.597236  0.791034  0.132567
			-0.127728  0.933041  0.336333
			-0.054190  0.941205  0.333463
			-0.358564  0.854961  0.374797
			-0.706901 -0.316159 -0.632720
			-0.559373 -0.525868 -0.640753
			 0.094781 -0.696281 -0.711484
			 0.028096 -0.660335 -0.750446
			-0.378967 -0.496919 -0.780676
			 0.035700 -0.647324 -0.761378
			-0.049118 -0.743222 -0.667239
			-0.219017 -0.581138 -0.783779
			-0.910690 -0.105304 -0.399443
			-0.942471  0.105497 -0.317205
			-0.872579  0.105478 -0.476949
			-0.593755  0.763628  0.253628
			-0.868992  0.444258 -0.217916
			-0.832859  0.553270 -0.015442
			-0.196069  0.923335  0.330166
			-0.382770  0.865560  0.322943
			-0.244926  0.916737  0.315602
			 0.251583 -0.553980 -0.793607
			 0.312818 -0.488915 -0.814314
			 0.416532 -0.508860 -0.753367
			 0.589998 -0.201492 -0.781859
			 0.644930 -0.387532 -0.658699
			 0.063523  0.934068  0.351399
			 0.808135  0.485568 -0.333380
			 0.746847  0.664794 -0.016381
			 0.809101  0.194044 -0.554710
			-0.056597  0.923029  0.380546
			 0.357022  0.856448  0.372870
			 0.165886  0.911783  0.375678
			 0.164143  0.897091  0.410226
			 0.503301  0.748999  0.430915
			-0.128651  0.925558  0.356077
			-0.499475 -0.401662 -0.767589
			-0.765512  0.125844 -0.630995
			-0.618829 -0.268653 -0.738157
			-0.458940 -0.466802 -0.755956
			 0.128645 -0.602166 -0.787938
			-0.489902 -0.408379 -0.770209
			-0.169450 -0.511201 -0.842592
			-0.501799 -0.526068 -0.686622
			 0.142539 -0.588457 -0.795865
			 0.163319 -0.768961 -0.618083
			 0.085263 -0.822362 -0.562539
			-0.084186 -0.700269 -0.708897
			-0.058829 -0.916422 -0.395866
			 0.048565 -0.951910 -0.302504
			-0.179878 -0.602685 -0.777441
			-0.858302  0.350799 -0.374511
			-0.188524  0.872027  0.451694
			-0.233194  0.860355  0.453221
			-0.584319  0.773084  0.246805
			-0.346938  0.860555  0.372933
			-0.763340  0.643373  0.058166
			-0.663736  0.728938  0.167640
			-0.143119  0.919037  0.367272
			-0.126449  0.913766  0.386061
			 0.325699 -0.593223 -0.736212
			 0.455688 -0.565283 -0.687607
			 0.713508 -0.546394 -0.438589
			 0.674921 -0.626841 -0.389298
			 0.870803 -0.098137 -0.481737
			 0.926814 -0.326450 -0.185598
			 0.852501  0.484855  0.195343
			 0.924989  0.331966 -0.184917
			 0.712310  0.629962  0.309455
			-0.203974  0.895198  0.396252
			 0.016595  0.909788  0.414741
			-0.002739  0.892682  0.450680
			-0.248736  0.903847  0.348124
			 0.149408  0.858263  0.490980
			 0.280183  0.731869  0.621180
			 0.380470  0.597694  0.705694
			 0.558314  0.627864  0.542285
			-0.780574 -0.379661 -0.496549
			-0.860677  0.109042 -0.497338
			-0.897206  0.432082 -0.091253
			-0.704951 -0.590055 -0.393547
			-0.494204 -0.655082 -0.571516
			-0.064271 -0.527435 -0.847161
			-0.318911 -0.779296 -0.539437
			-0.713979 -0.675943 -0.182579
			-0.667229 -0.662513 -0.340415
			 0.275817 -0.730887 -0.624283
			 0.321634 -0.936702 -0.138347
			 0.284240 -0.937176 -0.202260
			-0.197859 -0.894210 -0.401547
			-0.100211 -0.957900 -0.269046
			-0.080876 -0.996698 -0.007156
			-0.154676 -0.951692  0.265249
			 0.138180 -0.851317  0.506129
			 0.356566 -0.925817  0.125393
			-0.084839  0.914508  0.395572
			-0.289108  0.857215  0.426144
			-0.460735  0.802170  0.379798
			-0.648679  0.624064  0.435614
			 0.662150 -0.619138 -0.422167
			 0.824607 -0.535769 -0.181589
			 0.744008 -0.598483  0.297104
			 0.990469  0.057985 -0.124933
			 0.986185 -0.003219  0.165618
			 0.940601 -0.279656  0.192514
			 0.761232  0.479649  0.436420
			 0.870778  0.237488  0.430517
			-0.127494  0.811712  0.569973
			 0.056259  0.794592  0.604532
			 0.318060  0.490017  0.811616
			 0.392005  0.576787  0.716693
			 0.242403  0.649959  0.720274
			 0.185180  0.660642  0.727503
			 0.614617  0.370550  0.696375
			-0.994530  0.047834 -0.092854
			-0.969353 -0.214565  0.119649
			-0.865735 -0.479393  0.143820
			-0.891093  0.219974  0.396943
			-0.729098 -0.669443  0.142345
			-0.619761 -0.783388  0.046902
			-0.404399 -0.898384  0.171370
			-0.553801 -0.633636  0.540195
			 0.523022 -0.794694 -0.308076
			 0.639338 -0.718006  0.275161
			 0.460083 -0.643843  0.611383
			-0.037627 -0.643829  0.764244
			-0.192392 -0.280252  0.940449
			 0.291985 -0.440165  0.849117
			 0.116596  0.089478  0.989140
			 0.550581 -0.241375  0.799123
			-0.318204  0.768056  0.555731
			-0.451473  0.573349  0.683698
			-0.698280  0.312162  0.644174
			 0.768291 -0.619295  0.161874
			 0.694218 -0.333598  0.637788
			 0.451986 -0.398131  0.798248
			 0.480853 -0.401320  0.779566
			 0.812116 -0.127654  0.569361
			-0.021704  0.739216  0.673119
			-0.180090  0.697844  0.693240
			-0.171119  0.717453  0.675262
			 0.145724  0.685636  0.713210
			 0.504223  0.388133  0.771435
			 0.291770  0.541971  0.788123
			 0.525340 -0.148450  0.837843
			 0.485419 -0.178958  0.855770
			 0.209507  0.708232  0.674176
			 0.592046 -0.182471  0.784975
			-0.793027 -0.059929  0.606231
			-0.622890 -0.461281  0.631845
			-0.412744 -0.565345  0.714162
			-0.327636 -0.520356  0.788596
			-0.092679 -0.466106  0.879862
			 0.172719 -0.259256  0.950239
			 0.114128 -0.069760  0.991014
			 0.022401 -0.281682  0.959246
			-0.355069  0.593509  0.722270
			-0.588592  0.279347  0.758634
			-0.466209  0.122404  0.876166
			-0.569239 -0.087875  0.817462
			 0.320261 -0.520865  0.791285
			 0.189972 -0.512613  0.837340
			 0.050759  0.716389  0.695853
			-0.200812  0.725080  0.658736
			-0.098980  0.621279  0.777313
			 0.165612  0.487275  0.857400
			 0.278420 -0.084598  0.956727
			 0.477856 -0.526550  0.703135
			 0.336584 -0.681761  0.649548
			 0.306052 -0.726270  0.615519
			-0.210651 -0.416787  0.884259
			 0.212697 -0.684304  0.697487
			-0.013596 -0.628945  0.777331
			 0.000382 -0.683919  0.729558
			-0.290677  0.512284  0.808128
			-0.474311  0.163396  0.865061
			-0.297068 -0.492416  0.818093
			-0.157849 -0.131036  0.978730
			-0.051028 -0.262172  0.963671
			-0.240467 -0.694465  0.678155
			 0.149111 -0.768718  0.621963
			-0.130342 -0.727107  0.674038
			-0.019009 -0.706286  0.707672
			-0.291480 -0.276916  0.915618
		</DataArray>
	</PointData>
	<Points>
		<DataArray type="Float32" NumberOfComponents="3" format="ascii">
			 0.028048 -0.073886 -0.059963
			 0.027918 -0.073359 -0.060296
			 0.028823 -0.073912 -0.059723
			 0.027448 -0.073804 -0.059976
			 0.028407 -0.074372 -0.059436
			 0.026949 -0.074141 -0.059608
			 0.027930 -0.072804 -0.060312
			 0.027385 -0.073319 -0.060304
			 0.028389 -0.073128 -0.060207
			 0.028928 -0.073362 -0.059833
			 0.029161 -0.074034 -0.059340
			 0.028949 -0.074436 -0.059046
			 0.026768 -0.073678 -0.059985
			 0.026673 -0.074421 -0.059235
			 0.027815 -0.074553 -0.058965
			 0.028365 -0.074677 -0.058806
			 0.026209 -0.074078 -0.059472
			 0.027397 -0.072772 -0.060305
			 0.028424 -0.072667 -0.059943
			 0.027701 -0.072229 -0.059568
			 0.026766 -0.073037 -0.060151
			 0.029520 -0.073327 -0.058978
			 0.029165 -0.072683 -0.058753
			 0.029530 -0.073956 -0.058845
			 0.029822 -0.073847 -0.058323
			 0.029265 -0.074475 -0.058614
			 0.026374 -0.072973 -0.059833
			 0.026395 -0.074624 -0.058818
			 0.027544 -0.074825 -0.058589
			 0.028320 -0.074937 -0.058259
			 0.028851 -0.074987 -0.057861
			 0.026095 -0.073611 -0.059685
			 0.025795 -0.074187 -0.058979
			 0.027117 -0.072495 -0.059992
			 0.028710 -0.072532 -0.059404
			 0.027918 -0.072177 -0.059092
			 0.027314 -0.072196 -0.059197
			 0.028298 -0.072431 -0.057797
			 0.027628 -0.072344 -0.058210
			 0.026114 -0.072828 -0.059290
			 0.029618 -0.073131 -0.058404
			 0.028990 -0.072562 -0.057964
			 0.029695 -0.074421 -0.058141
			 0.029464 -0.072892 -0.057721
			 0.029875 -0.073545 -0.057900
			 0.030017 -0.074524 -0.057247
			 0.026540 -0.072479 -0.059377
			 0.025710 -0.073318 -0.058960
			 0.027148 -0.075110 -0.058203
			 0.027046 -0.075569 -0.057461
			 0.026086 -0.074926 -0.057956
			 0.026636 -0.075671 -0.056966
			 0.025556 -0.074292 -0.058512
			 0.027784 -0.075550 -0.057546
			 0.029841 -0.074867 -0.056924
			 0.028487 -0.075651 -0.057200
			 0.025594 -0.073258 -0.058415
			 0.026807 -0.072326 -0.058910
			 0.028646 -0.072415 -0.058332
			 0.026782 -0.072454 -0.058108
			 0.027794 -0.072472 -0.057620
			 0.028693 -0.072692 -0.057150
			 0.025990 -0.072827 -0.058217
			 0.025727 -0.073083 -0.057840
			 0.029373 -0.072915 -0.057224
			 0.029786 -0.073329 -0.057022
			 0.030021 -0.073731 -0.057285
			 0.030308 -0.074403 -0.056219
			 0.026742 -0.076545 -0.055536
			 0.027881 -0.075872 -0.057038
			 0.027655 -0.076510 -0.056095
			 0.027424 -0.076971 -0.055335
			 0.025771 -0.075313 -0.056146
			 0.025506 -0.074638 -0.057712
			 0.025456 -0.074866 -0.056840
			 0.026078 -0.075771 -0.055456
			 0.026586 -0.076679 -0.055054
			 0.025373 -0.073599 -0.058045
			 0.029402 -0.075317 -0.056630
			 0.030145 -0.074962 -0.056025
			 0.029839 -0.075865 -0.055014
			 0.028440 -0.076397 -0.056133
			 0.029297 -0.076500 -0.055310
			 0.028853 -0.076748 -0.055395
			 0.027286 -0.072600 -0.057338
			 0.026558 -0.072966 -0.056879
			 0.028528 -0.072895 -0.056600
			 0.027607 -0.072945 -0.056508
			 0.029490 -0.073193 -0.056557
			 0.025509 -0.073600 -0.056610
			 0.025241 -0.073930 -0.057265
			 0.030089 -0.073703 -0.056780
			 0.030159 -0.073958 -0.055941
			 0.030304 -0.074382 -0.055707
			 0.030111 -0.075136 -0.055124
			 0.028298 -0.077109 -0.055035
			 0.027740 -0.077417 -0.054640
			 0.027020 -0.077324 -0.054490
			 0.025374 -0.074877 -0.056338
			 0.025526 -0.075187 -0.055542
			 0.026012 -0.075761 -0.054943
			 0.026230 -0.076341 -0.054314
			 0.026479 -0.076984 -0.054221
			 0.029541 -0.076017 -0.055448
			 0.029730 -0.076647 -0.054456
			 0.029975 -0.076519 -0.053918
			 0.030041 -0.075709 -0.053952
			 0.028986 -0.077144 -0.054647
			 0.026528 -0.073262 -0.056280
			 0.028882 -0.073288 -0.055879
			 0.028330 -0.073325 -0.055828
			 0.027497 -0.073649 -0.055408
			 0.027783 -0.073415 -0.055808
			 0.029436 -0.073766 -0.055235
			 0.029764 -0.073518 -0.056131
			 0.026239 -0.073562 -0.055913
			 0.025380 -0.074161 -0.055921
			 0.025193 -0.074311 -0.056483
			 0.030197 -0.074426 -0.055220
			 0.029788 -0.074786 -0.054379
			 0.029927 -0.075217 -0.054151
			 0.028335 -0.077526 -0.054386
			 0.027580 -0.078056 -0.053495
			 0.027873 -0.078533 -0.052815
			 0.027995 -0.077845 -0.053926
			 0.027376 -0.078236 -0.053074
			 0.026715 -0.077541 -0.053580
			 0.025269 -0.074741 -0.055747
			 0.026029 -0.075612 -0.054404
			 0.025557 -0.075047 -0.054955
			 0.026221 -0.077033 -0.052719
			 0.026730 -0.077955 -0.052826
			 0.029341 -0.077729 -0.053539
			 0.029640 -0.077835 -0.053142
			 0.029703 -0.077248 -0.053805
			 0.030182 -0.077201 -0.052846
			 0.030190 -0.076256 -0.052797
			 0.030384 -0.076508 -0.051972
			 0.029435 -0.074810 -0.053847
			 0.029862 -0.075465 -0.053289
			 0.028858 -0.078162 -0.053228
			 0.028789 -0.073789 -0.055162
			 0.027999 -0.073941 -0.055146
			 0.026248 -0.073855 -0.055362
			 0.026618 -0.074299 -0.054671
			 0.027217 -0.074194 -0.054692
			 0.029196 -0.074257 -0.054491
			 0.025925 -0.074271 -0.055063
			 0.025473 -0.074597 -0.055192
			 0.027171 -0.078417 -0.052654
			 0.028657 -0.078694 -0.052515
			 0.027667 -0.079496 -0.051354
			 0.026794 -0.078473 -0.052138
			 0.026169 -0.075673 -0.053917
			 0.026050 -0.075117 -0.054315
			 0.026197 -0.077587 -0.052043
			 0.026451 -0.075948 -0.052120
			 0.026167 -0.076772 -0.051813
			 0.029897 -0.077973 -0.052637
			 0.029075 -0.078842 -0.052158
			 0.030436 -0.077077 -0.052309
			 0.030237 -0.078247 -0.051967
			 0.030786 -0.077404 -0.051548
			 0.030013 -0.075861 -0.052044
			 0.029598 -0.075365 -0.052698
			 0.030709 -0.076968 -0.051237
			 0.030339 -0.076105 -0.051234
			 0.030673 -0.076403 -0.050691
			 0.028949 -0.074496 -0.054099
			 0.029055 -0.074868 -0.053334
			 0.028483 -0.074694 -0.053618
			 0.027541 -0.074369 -0.054338
			 0.027938 -0.074702 -0.053588
			 0.026548 -0.074915 -0.054025
			 0.027272 -0.074638 -0.053960
			 0.026610 -0.078885 -0.051357
			 0.028838 -0.079166 -0.051816
			 0.028123 -0.080145 -0.050731
			 0.026763 -0.079712 -0.050565
			 0.026115 -0.078481 -0.051057
			 0.026365 -0.075525 -0.053359
			 0.025960 -0.077708 -0.051086
			 0.026036 -0.077232 -0.051317
			 0.026051 -0.077013 -0.050694
			 0.027028 -0.075539 -0.051960
			 0.026459 -0.076153 -0.051208
			 0.029646 -0.078649 -0.052122
			 0.029608 -0.079815 -0.050910
			 0.030203 -0.078699 -0.051594
			 0.030808 -0.079186 -0.050812
			 0.030670 -0.078607 -0.051234
			 0.030909 -0.077864 -0.051335
			 0.029905 -0.075719 -0.051450
			 0.028990 -0.075116 -0.052472
			 0.029385 -0.075454 -0.051725
			 0.030988 -0.076891 -0.050638
			 0.031266 -0.077783 -0.050831
			 0.030118 -0.075944 -0.050613
			 0.030425 -0.076332 -0.050019
			 0.030855 -0.076633 -0.049926
			 0.028090 -0.075124 -0.052357
			 0.028350 -0.075351 -0.051686
			 0.026942 -0.075118 -0.053198
			 0.025863 -0.078987 -0.050321
			 0.026158 -0.079515 -0.050264
			 0.028768 -0.079750 -0.051151
			 0.028617 -0.080413 -0.050519
			 0.026490 -0.080116 -0.050016
			 0.028963 -0.081442 -0.049668
			 0.028617 -0.081819 -0.049342
			 0.027540 -0.080705 -0.050066
			 0.025802 -0.078376 -0.050455
			 0.025848 -0.077801 -0.050549
			 0.025571 -0.078171 -0.050060
			 0.026473 -0.076332 -0.050353
			 0.025717 -0.077551 -0.049821
			 0.025969 -0.076969 -0.050157
			 0.027677 -0.075345 -0.052000
			 0.026732 -0.076017 -0.050703
			 0.026963 -0.075799 -0.051105
			 0.030417 -0.080386 -0.050196
			 0.030320 -0.079611 -0.050777
			 0.031434 -0.079921 -0.050108
			 0.031710 -0.078782 -0.050479
			 0.031717 -0.079471 -0.050227
			 0.028838 -0.075642 -0.050765
			 0.031615 -0.077557 -0.050255
			 0.031436 -0.077079 -0.049952
			 0.031843 -0.078094 -0.050355
			 0.028622 -0.075838 -0.050352
			 0.030334 -0.076687 -0.049079
			 0.029752 -0.075986 -0.050090
			 0.029601 -0.076352 -0.049286
			 0.031035 -0.077065 -0.048894
			 0.028467 -0.075532 -0.051150
			 0.025882 -0.079844 -0.049825
			 0.025267 -0.079006 -0.049710
			 0.025079 -0.079504 -0.049520
			 0.025564 -0.079384 -0.049848
			 0.029763 -0.080504 -0.050295
			 0.025743 -0.080296 -0.049571
			 0.026797 -0.081043 -0.049647
			 0.026247 -0.080950 -0.049519
			 0.029787 -0.080954 -0.049992
			 0.029579 -0.081696 -0.049399
			 0.029172 -0.082037 -0.049045
			 0.027561 -0.081828 -0.049208
			 0.028086 -0.082087 -0.048931
			 0.028949 -0.082243 -0.048636
			 0.027402 -0.081070 -0.049742
			 0.025306 -0.077995 -0.049570
			 0.027482 -0.076225 -0.049926
			 0.026706 -0.076612 -0.049550
			 0.026202 -0.076836 -0.049615
			 0.026360 -0.077106 -0.048796
			 0.025367 -0.077748 -0.049052
			 0.025906 -0.077132 -0.049249
			 0.027531 -0.075634 -0.051286
			 0.027369 -0.075861 -0.050697
			 0.030552 -0.080950 -0.049799
			 0.031014 -0.080520 -0.049903
			 0.031745 -0.080032 -0.049716
			 0.031420 -0.080527 -0.049462
			 0.032041 -0.078900 -0.050094
			 0.032104 -0.079537 -0.049476
			 0.032052 -0.078097 -0.049131
			 0.032109 -0.078121 -0.049650
			 0.031574 -0.077442 -0.049185
			 0.028098 -0.076174 -0.049832
			 0.028970 -0.076240 -0.049635
			 0.028254 -0.076564 -0.048731
			 0.027928 -0.076448 -0.049118
			 0.029902 -0.076652 -0.048822
			 0.030194 -0.077037 -0.048268
			 0.030947 -0.078127 -0.047702
			 0.031255 -0.077645 -0.048264
			 0.025002 -0.079920 -0.049254
			 0.024880 -0.078974 -0.049338
			 0.024937 -0.078421 -0.048872
			 0.025303 -0.080440 -0.049098
			 0.026379 -0.081390 -0.049294
			 0.027100 -0.081480 -0.049443
			 0.026807 -0.081783 -0.049082
			 0.026000 -0.081339 -0.048717
			 0.025673 -0.080915 -0.048925
			 0.030261 -0.081541 -0.049400
			 0.030216 -0.081941 -0.048629
			 0.029542 -0.082148 -0.048660
			 0.027323 -0.082054 -0.048810
			 0.027631 -0.082252 -0.048467
			 0.028223 -0.082316 -0.048281
			 0.027810 -0.082266 -0.048000
			 0.028898 -0.082326 -0.047960
			 0.029410 -0.082233 -0.048182
			 0.027789 -0.076004 -0.050337
			 0.027226 -0.076993 -0.048347
			 0.026078 -0.077387 -0.048424
			 0.025635 -0.077836 -0.048127
			 0.031167 -0.081051 -0.049236
			 0.031709 -0.080418 -0.048938
			 0.031432 -0.080710 -0.048598
			 0.032245 -0.078756 -0.049540
			 0.032253 -0.078747 -0.049037
			 0.031978 -0.079675 -0.048543
			 0.031921 -0.078244 -0.048569
			 0.032037 -0.078691 -0.048375
			 0.027794 -0.076833 -0.048330
			 0.028641 -0.077010 -0.048046
			 0.029965 -0.078591 -0.046773
			 0.030287 -0.078052 -0.047376
			 0.029506 -0.078107 -0.047186
			 0.029675 -0.077337 -0.047788
			 0.031518 -0.078527 -0.047815
			 0.024728 -0.079161 -0.048776
			 0.024776 -0.079818 -0.048666
			 0.024965 -0.080139 -0.048266
			 0.024861 -0.079003 -0.048203
			 0.025583 -0.080936 -0.048427
			 0.026289 -0.081673 -0.048449
			 0.026966 -0.082084 -0.048281
			 0.026146 -0.081272 -0.047952
			 0.030612 -0.081668 -0.049021
			 0.030670 -0.081691 -0.048515
			 0.030288 -0.081693 -0.048082
			 0.028289 -0.082108 -0.047695
			 0.027327 -0.081776 -0.047781
			 0.029254 -0.081825 -0.047729
			 0.028724 -0.081813 -0.047689
			 0.029856 -0.082008 -0.048054
			 0.026355 -0.077485 -0.048018
			 0.025929 -0.077941 -0.047728
			 0.025384 -0.078770 -0.047647
			 0.031085 -0.081271 -0.048723
			 0.031780 -0.080157 -0.048459
			 0.030933 -0.080891 -0.048222
			 0.031312 -0.079903 -0.047891
			 0.031847 -0.079321 -0.048014
			 0.028329 -0.077600 -0.047351
			 0.027115 -0.077568 -0.047670
			 0.027672 -0.077783 -0.047370
			 0.029103 -0.077616 -0.047463
			 0.030659 -0.078524 -0.047201
			 0.029234 -0.078580 -0.046545
			 0.030506 -0.078998 -0.046956
			 0.029964 -0.079209 -0.046649
			 0.028822 -0.077904 -0.047095
			 0.031168 -0.078945 -0.047446
			 0.025269 -0.079592 -0.047535
			 0.025332 -0.080330 -0.047781
			 0.025976 -0.080776 -0.047651
			 0.026584 -0.081546 -0.047917
			 0.026513 -0.080834 -0.047612
			 0.029158 -0.080883 -0.047836
			 0.028520 -0.081099 -0.047767
			 0.027779 -0.080957 -0.047738
			 0.026645 -0.078528 -0.046879
			 0.025746 -0.078934 -0.047211
			 0.026177 -0.079063 -0.046919
			 0.025737 -0.079508 -0.047162
			 0.030470 -0.080040 -0.047743
			 0.030029 -0.080303 -0.047805
			 0.028547 -0.078181 -0.046721
			 0.027308 -0.078184 -0.047057
			 0.027943 -0.078552 -0.046358
			 0.028730 -0.078659 -0.046318
			 0.029047 -0.079163 -0.046240
			 0.030749 -0.079340 -0.047279
			 0.029918 -0.079895 -0.047401
			 0.029417 -0.079716 -0.046654
			 0.026168 -0.079816 -0.047057
			 0.029423 -0.080090 -0.047532
			 0.028980 -0.080338 -0.047621
			 0.027518 -0.080182 -0.047340
			 0.027418 -0.078693 -0.046370
			 0.026888 -0.078859 -0.046519
			 0.026621 -0.079630 -0.046860
			 0.027779 -0.079025 -0.046140
			 0.028314 -0.079076 -0.046115
			 0.028485 -0.079577 -0.046407
			 0.028221 -0.080072 -0.047279
			 0.027364 -0.079784 -0.046870
			 0.027952 -0.079536 -0.046415
			 0.027332 -0.079248 -0.046272
		</DataArray>
	</Points>
			<Polys>
				<DataArray type="Int32" Name="connectivity" format="ascii">
					0 1 2 
					1 0 3 
					0 2 4 
					3 0 5 
					5 0 4 
					6 1 7 
					2 1 8 
					1 3 7 
					8 1 6 
					2 8 9 
					10 2 9 
					10 11 2 
					4 2 11 
					12 7 3 
					3 5 12 
					5 4 13 
					13 4 14 
					14 4 15 
					15 4 11 
					5 13 16 
					12 5 16 
					7 17 6 
					18 8 6 
					6 17 19 
					19 18 6 
					12 20 7 
					17 7 20 
					18 9 8 
					10 9 21 
					9 18 22 
					22 21 9 
					10 23 11 
					21 24 10 
					23 10 24 
					11 23 25 
					15 11 25 
					16 26 12 
					20 12 26 
					13 27 16 
					14 27 13 
					28 14 15 
					27 14 28 
					29 15 30 
					30 15 25 
					15 29 28 
					31 26 16 
					32 16 27 
					16 32 31 
					19 17 33 
					33 17 20 
					34 18 19 
					18 34 22 
					19 35 34 
					36 19 33 
					37 35 19 
					38 19 36 
					37 19 38 
					26 20 39 
					39 20 26 
					26 33 20 
					40 24 21 
					21 22 40 
					41 22 34 
					22 41 40 
					24 42 23 
					25 23 42 
					24 43 44 
					40 43 24 
					42 24 45 
					45 24 44 
					30 25 42 
					26 46 33 
					39 46 26 
					39 26 47 
					47 26 31 
					28 48 27 
					48 49 27 
					50 27 51 
					51 27 49 
					50 52 27 
					52 32 27 
					53 28 29 
					48 28 53 
					30 53 29 
					42 45 30 
					30 45 54 
					53 30 55 
					54 55 30 
					47 31 32 
					32 56 47 
					32 52 56 
					36 33 57 
					57 33 46 
					34 35 58 
					58 41 34 
					58 35 37 
					59 38 36 
					59 36 57 
					37 41 58 
					38 60 37 
					41 37 61 
					61 37 60 
					60 38 59 
					46 39 57 
					39 47 56 
					39 59 57 
					39 62 59 
					63 62 39 
					63 39 56 
					40 41 43 
					64 43 41 
					64 41 61 
					44 43 65 
					65 43 64 
					45 44 66 
					66 44 45 
					66 44 65 
					44 66 45 
					67 45 66 
					54 45 67 
					53 49 48 
					68 51 49 
					49 53 69 
					49 69 70 
					70 71 49 
					68 49 71 
					51 72 50 
					73 52 50 
					74 73 50 
					50 72 74 
					75 72 51 
					51 68 76 
					51 76 75 
					56 52 77 
					77 52 73 
					55 69 53 
					78 55 54 
					79 54 67 
					78 54 80 
					54 79 80 
					55 81 69 
					82 55 78 
					83 55 82 
					55 83 81 
					63 56 77 
					84 60 59 
					85 84 59 
					63 85 59 
					62 63 59 
					60 86 61 
					60 84 85 
					60 85 87 
					86 60 87 
					88 64 61 
					88 61 86 
					85 63 89 
					63 77 90 
					89 63 90 
					65 64 88 
					91 66 65 
					91 65 88 
					66 91 67 
					79 67 80 
					67 91 92 
					67 92 93 
					94 67 93 
					94 80 67 
					71 76 68 
					69 81 70 
					71 70 81 
					95 71 81 
					96 71 95 
					71 96 97 
					76 71 97 
					98 72 99 
					72 98 74 
					100 99 72 
					72 75 100 
					73 74 90 
					73 90 77 
					90 74 98 
					101 100 75 
					101 75 76 
					76 97 102 
					76 102 101 
					103 82 78 
					78 80 103 
					104 103 80 
					104 80 105 
					80 94 106 
					106 105 80 
					95 81 83 
					82 103 104 
					107 83 82 
					82 104 107 
					107 95 83 
					108 85 89 
					87 85 108 
					86 109 88 
					109 86 110 
					87 110 86 
					111 87 108 
					87 112 110 
					111 112 87 
					88 113 114 
					113 88 109 
					88 114 91 
					89 115 108 
					89 116 115 
					117 89 90 
					89 117 116 