<?xml version="1.0"?>
<VTKFile type="PolyData" version="0.1" byte_order="LittleEndian" compressor="vtkZLibDataCompressor">
	<PolyData>
		<Piece NumberOfPoints="454" NumberOfVerts="0" NumberOfLines="0" NumberOfStrips="0" NumberOfPolys="968">
		<PointData Normals="Normals">
		<DataArray type="Float32" Name="Normals" NumberOfComponents="3" format="ascii">
			 0.679126 -0.050095  0.732310
			 0.465753 -0.609349  0.641691
			 0.286593 -0.946711 -0.146977
			 0.319850  0.521297  0.791167
			-0.037450  0.909184  0.414707
			 0.421505  0.200430  0.884399
			-0.102596 -0.949298 -0.297165
			 0.433728 -0.229018  0.871453
			-0.545206 -0.516023 -0.660660
			-0.626993 -0.178535 -0.758291
			-0.198921  0.739939  0.642589
			 0.107575  0.751698  0.650675
			-0.677928  0.628411 -0.381461
			-0.980797  0.063989 -0.184237
			 0.179096 -0.942928  0.280734
			 0.338774  0.598965  0.725585
			 0.405851 -0.176513  0.896732
			-0.724787 -0.359930 -0.587481
			-0.511478 -0.548590 -0.661392
			-0.131103 -0.937180 -0.323272
			 0.624815 -0.722856  0.295103
			-0.253608  0.732656  0.631583
			-0.420152 -0.560884 -0.713359
			-0.229619  0.838743 -0.493747
			 0.000000  0.000000  1.000000
			 0.220317  0.686196  0.693250
			-0.201506  0.940080  0.275035
			-0.666401  0.662878 -0.341326
			 0.594310 -0.192181  0.780936
			 0.347238  0.461178  0.816542
			 0.210736  0.628003  0.749135
			 0.370232 -0.838358  0.400105
			 0.068979 -0.992945  0.096448
			-0.310338 -0.730808 -0.607955
			-0.793545  0.182015 -0.580652
			-0.106517 -0.914967 -0.389216
			 0.179087 -0.976580  0.119248
			 0.448347 -0.888400  0.098645
			 0.470044  0.282270  0.836291
			 0.268101  0.927102 -0.261922
			-0.819032 -0.263557 -0.509631
			 0.047003 -0.704498 -0.708148
			 0.079390  0.861449  0.501600
			-0.402519  0.879462  0.254019
			 0.171732  0.749923  0.638846
			 0.289358  0.755889  0.587286
			 0.634184 -0.268121  0.725205
			 0.898866  0.107212  0.424907
			-0.090383 -0.828035 -0.553344
			-0.361532 -0.569788 -0.737995
			-0.734611  0.053022 -0.676414
			-0.087010 -0.822093 -0.562665
			 0.417202 -0.878757  0.231794
			 0.362364 -0.865550 -0.345710
			 0.570011 -0.776034  0.269922
			-0.119757  0.452308 -0.883785
			 0.437968  0.767634  0.467892
			-0.326460  0.944653 -0.032463
			 0.207419  0.762206  0.613205
			-0.660713  0.220809 -0.717427
			-0.288293 -0.175316 -0.941356
			-0.161311  0.976103 -0.145606
			-0.281748  0.869522  0.405648
			-0.004517  0.961959 -0.273155
			 0.744270  0.237963  0.624049
			-0.146369  0.975248 -0.165734
			-0.055856  0.994072 -0.093278
			 0.677524  0.118917  0.725824
			 0.525854 -0.763731 -0.374422
			-0.052154 -0.763723 -0.643433
			-0.489448  0.368457 -0.790368
			-0.354924  0.110830 -0.928303
			-0.728982  0.061825 -0.681735
			 0.053981 -0.753329 -0.655424
			 0.321133 -0.663760 -0.675497
			-0.073911 -0.780397 -0.620901
			 0.562873  0.753495 -0.339735
			 0.349161 -0.359309  0.865439
			 0.929753  0.367094 -0.028310
			 0.968911 -0.242380 -0.049640
			 0.215077  0.670911  0.709662
			 0.233481  0.646480  0.726326
			 0.252665  0.898048  0.360098
			-0.538983  0.456310 -0.708010
			-0.526363  0.789208 -0.316374
			-0.243666  0.301346 -0.921855
			-0.003841  0.967951  0.251111
			-0.409499 -0.808350 -0.422944
			-0.180290  0.595816 -0.782623
			-0.235010 -0.127737 -0.963563
			 0.611915  0.594088  0.522130
			 0.415483 -0.727682 -0.545759
			 0.063882 -0.682824 -0.727785
			 0.540279  0.721114  0.433696
			-0.680782 -0.314935 -0.661326
			-0.169725  0.860592  0.480183
			 0.328515  0.281896 -0.901450
			 0.749488  0.235619 -0.618670
			-0.352131 -0.221370 -0.909395
			 0.499296  0.863831 -0.067082
			 0.144952  0.987247  0.065816
			 0.222970  0.964806 -0.139405
			 0.389449  0.902830  0.182284
			 0.222415  0.765423 -0.603870
			-0.314819  0.025972 -0.948796
			-0.333676 -0.463794 -0.820705
			-0.334880 -0.127241 -0.933630
			-0.399166  0.010888 -0.916814
			 0.056808  0.997528 -0.041360
			-0.119740  0.992781  0.006891
			 0.060913  0.883347  0.464744
			 0.515167  0.746121 -0.421789
			 0.447627  0.607915 -0.655797
			-0.167905 -0.735682 -0.656186
			 0.000000  0.000000  1.000000
			-0.890660 -0.023633  0.454056
			 0.000000  0.000000  1.000000
			 0.386141  0.894341 -0.225942
			 0.431114  0.841810  0.324803
			 0.201764  0.842486  0.499508
			 0.026991  0.957560  0.286969
			 0.298648  0.764329  0.571499
			-0.322908  0.746004 -0.582417
			 0.089621 -0.447467 -0.889799
			-0.196885 -0.636668 -0.745580
			-0.394448 -0.429153 -0.812551
			-0.417411  0.676296 -0.606953
			-0.563080  0.047668 -0.825026
			-0.344168  0.929848 -0.130116
			 0.451964  0.877104 -0.162532
			 0.326069  0.186231 -0.926821
			-0.057461 -0.425775 -0.903003
			-0.634632 -0.716140  0.290491
			-0.484821 -0.221577  0.846080
			-0.794676 -0.597266 -0.108461
			-0.810914  0.171767  0.559388
			-0.602269  0.042954  0.797136
			-0.860800 -0.421250  0.285607
			 0.785545  0.618656  0.013599
			 0.522212  0.790513  0.319975
			 0.695842  0.678338  0.235927
			 0.502742  0.731304  0.460917
			 0.059332  0.876118  0.478432
			 0.151037  0.749641  0.644381
			-0.231322  0.966014  0.115354
			 0.437910  0.637699  0.633700
			-0.024932 -0.773765 -0.632981
			-0.057671 -0.744665 -0.664942
			-0.252159 -0.542775 -0.801131
			-0.152201 -0.652165 -0.742641
			-0.538243 -0.144859 -0.830247
			-0.413386 -0.369963 -0.832009
			-0.679839  0.534018 -0.502636
			-0.725829  0.222430 -0.650920
			-0.559488  0.822776 -0.100062
			 0.828947  0.074370 -0.554361
			 0.150877 -0.607171 -0.780115
			-0.692292 -0.660896  0.289740
			-0.781384 -0.558789  0.277840
			-0.825172 -0.154152  0.543441
			-0.760629 -0.115912  0.638755
			-0.707008 -0.689867  0.155638
			-0.779687 -0.319206  0.538699
			-0.533921 -0.151378  0.831873
			-0.574550 -0.233684  0.784400
			-0.710375 -0.673881  0.203105
			-0.657605 -0.486173  0.575493
			-0.642260 -0.693251  0.326964
			 0.975827 -0.105372 -0.191466
			 0.976958  0.152889  0.148924
			 0.744735  0.442549  0.499520
			 0.119017  0.702912  0.701249
			-0.041957  0.844421  0.534034
			 0.230064  0.711453  0.664007
			 0.075491  0.749481  0.657707
			 0.116187  0.769065  0.628522
			 0.056166  0.759786  0.647742
			 0.404575  0.529522  0.745605
			 0.692519  0.316221  0.648400
			 0.583563  0.309407  0.750814
			 0.398666 -0.664202 -0.632378
			 0.602036 -0.690831 -0.400381
			 0.041816 -0.870084 -0.491127
			-0.068682 -0.761332 -0.644714
			 0.041872 -0.860090 -0.508421
			-0.162160 -0.674022 -0.720693
			-0.265315 -0.562389 -0.783152
			-0.339494 -0.498628 -0.797567
			-0.724111  0.267704 -0.635608
			-0.545117 -0.078375 -0.834688
			-0.611297  0.025238 -0.790999
			-0.430629 -0.336172 -0.837584
			-0.350292 -0.537442 -0.767106
			-0.584305  0.730630 -0.353225
			-0.536791  0.842795  0.039400
			-0.874034 -0.092912  0.476898
			-0.873653 -0.178645  0.452566
			-0.906841 -0.105579  0.408035
			-0.439167  0.495901  0.749142
			-0.410250  0.419058  0.809991
			-0.957263 -0.141524  0.252228
			-0.933639 -0.227432  0.276755
			-0.956676 -0.284096  0.063714
			-0.989170 -0.116178  0.089694
			-0.842113 -0.533518 -0.078771
			-0.413214 -0.583366  0.699241
			-0.542965 -0.358369  0.759448
			-0.204219  0.465486  0.861172
			-0.431077 -0.403951  0.806844
			-0.519588 -0.486833  0.702155
			-0.377948 -0.429999  0.819912
			-0.533193 -0.816436  0.221670
			-0.317046 -0.863658 -0.391889
			-0.374683 -0.813727 -0.444366
			-0.462492 -0.757858 -0.460166
			-0.528039 -0.505595  0.682311
			-0.354783 -0.409798  0.840354
			 0.947425 -0.153299  0.280867
			 0.090663  0.843842  0.528877
			-0.233607  0.952588  0.194945
			 0.120524  0.730608  0.672076
			 0.212954  0.624515  0.751420
			 0.183005  0.771216  0.609700
			 0.506628  0.234905  0.829547
			 0.332089  0.366253  0.869239
			 0.682120 -0.022314  0.730900
			 0.791850 -0.299741  0.532099
			 0.585175 -0.416924  0.695518
			 0.490797 -0.865605 -0.099229
			 0.055072 -0.951948 -0.301267
			 0.185335 -0.979331 -0.081001
			-0.113585 -0.774485 -0.622312
			 0.075340 -0.887847 -0.453930
			 0.127583 -0.938588 -0.320585
			-0.248760 -0.656308 -0.712305
			-0.645328  0.361051 -0.673196
			-0.504884 -0.154025 -0.849334
			-0.511878  0.003305 -0.859052
			-0.416712 -0.285281 -0.863114
			-0.327987 -0.528129 -0.783265
			-0.245466 -0.665839 -0.704560
			-0.513440  0.813897 -0.271939
			-0.537254  0.475782  0.696412
			-0.460126  0.547560  0.698901
			-0.922734 -0.012969  0.385219
			-0.648345  0.325505  0.688255
			-0.040518  0.684025  0.728332
			 0.063922  0.719287  0.691766
			-0.835401 -0.391221 -0.386072
			-0.919536 -0.331803 -0.210617
			-0.977331  0.141433 -0.157548
			-0.827952 -0.166124 -0.535629
			-0.663501 -0.390687 -0.638068
			-0.514768 -0.623387 -0.588560
			-0.096370  0.352223  0.930941
			-0.097579  0.272870  0.957090
			 0.071056  0.665644  0.742879
			-0.289578 -0.917041  0.274191
			-0.344430 -0.524497  0.778634
			-0.332202 -0.740751  0.583892
			-0.206858 -0.765678  0.609054
			-0.222576 -0.922813  0.314445
			-0.249553 -0.908938 -0.333998
			 0.000314 -0.758800 -0.651324
			-0.134888 -0.754395 -0.642412
			-0.181185 -0.710947 -0.679504
			-0.237690 -0.624261 -0.744179
			-0.301497 -0.113859  0.946645
			-0.001224 -0.103392  0.994640
			 0.038296  0.295833  0.954472
			 0.054576  0.907636  0.416194
			 0.180349  0.812820  0.553894
			-0.130037  0.981915  0.137596
			-0.432038  0.869630 -0.238929
			 0.236962  0.433271  0.869555
			 0.203249  0.683019  0.701552
			 0.186799  0.688368  0.700896
			 0.344748  0.525547  0.777785
			 0.356597  0.645436  0.675463
			 0.312468  0.046633  0.948783
			 0.469405 -0.206622  0.858468
			 0.575957 -0.644543  0.502830
			 0.515200 -0.799332  0.309254
			 0.288327 -0.952379  0.099210
			 0.353620 -0.442638  0.824029
			 0.321864 -0.874401  0.363079
			 0.156488 -0.973337 -0.167711
			 0.088838 -0.919084 -0.383916
			-0.135401 -0.784800 -0.604777
			 0.193474 -0.943251 -0.269898
			 0.170682 -0.946364 -0.274341
			-0.431596  0.808257 -0.400557
			-0.484288  0.335063 -0.808207
			-0.458442 -0.080184 -0.885100
			-0.262953 -0.638334 -0.723454
			-0.133098 -0.775122 -0.617633
			-0.505847  0.017402 -0.862447
			-0.231061 -0.510325 -0.828360
			-0.299114 -0.254856 -0.919554
			-0.193356  0.638807  0.744674
			-0.654067  0.617040  0.437560
			-0.637853  0.350987  0.685531
			-0.251996  0.646000  0.720543
			 0.145908  0.682203  0.716457
			-0.017001  0.753418  0.657322
			 0.119484  0.711280  0.692679
			 0.145887  0.816852  0.558094
			 0.152203  0.805365  0.572906
			 0.251126  0.651228  0.716127
			-0.618816 -0.348010 -0.704241
			-0.421941 -0.506977 -0.751625
			-0.852512 -0.161086 -0.497267
			-0.693823  0.033357 -0.719372
			-0.588393  0.807856  0.034105
			-0.810953  0.424319 -0.402876
			-0.320972 -0.206586 -0.924283
			-0.439573 -0.212265 -0.872765
			-0.284725 -0.426013 -0.858746
			-0.386941 -0.210941 -0.897653
			-0.190666 -0.508072 -0.839946
			 0.084427  0.704184  0.704981
			 0.173402  0.726105  0.665359
			 0.103501  0.627475  0.771727
			 0.004467 -0.938436 -0.345425
			-0.102852 -0.901515 -0.420348
			-0.139464 -0.858491  0.493501
			 0.165978 -0.413028  0.895466
			 0.007932 -0.000636  0.999968
			 0.107389 -0.986737  0.121728
			 0.026827 -0.999244  0.028127
			 0.029086 -0.924695 -0.379597
			 0.138120 -0.792856 -0.593550
			 0.072396 -0.603711 -0.793909
			 0.258363 -0.655996 -0.709167
			-0.031320  0.244286  0.969197
			 0.093593  0.395689  0.913603
			 0.013175  0.929294  0.369106
			 0.375731  0.636734  0.673347
			 0.087377  0.888407  0.450664
			 0.248730  0.753742  0.608281
			-0.049894  0.986725  0.154545
			 0.556718 -0.212022  0.803188
			 0.473106  0.438904  0.763894
			 0.452997  0.516489  0.726659
			 0.349679 -0.935968  0.041086
			 0.085683 -0.963831 -0.252366
			 0.220923 -0.946326 -0.235925
			 0.379909 -0.923997  0.043579
			-0.023183 -0.983604 -0.178845
			-0.306018  0.871062 -0.384192
			-0.360026  0.654815 -0.664529
			-0.381500 -0.005723 -0.924351
			-0.349763  0.456495 -0.818094
			 0.191164 -0.902305 -0.386397
			 0.020157 -0.785141 -0.618989
			-0.060611 -0.574941 -0.815947
			-0.152034 -0.175601 -0.972651
			-0.142996 -0.303716 -0.941971
			-0.264458  0.905900  0.330767
			-0.292572  0.792547  0.535044
			-0.058842  0.888067  0.455932
			 0.300215  0.726458  0.618166
			 0.068789  0.891911  0.446948
			 0.192443  0.846718  0.496018
			 0.062639  0.980852  0.184407
			 0.282347  0.696516  0.659656
			 0.281756  0.731999  0.620316
			 0.221087  0.811837  0.540408
			 0.243358  0.757827  0.605372
			-0.544722  0.271433 -0.793475
			-0.151576  0.017749 -0.988286
			-0.061671  0.996656 -0.053613
			-0.519340  0.636085 -0.570685
			-0.257144  0.893116 -0.369082
			-0.075677 -0.286246 -0.955163
			-0.078254 -0.238805 -0.967909
			-0.117490 -0.247921 -0.961630
			-0.018578 -0.362628 -0.931749
			 0.016823 -0.440262 -0.897712
			 0.317881  0.685415  0.655102
			 0.280375  0.749067  0.600240
			 0.257338  0.809649  0.527490
			 0.294331  0.743018  0.601077
			 0.230928  0.655072  0.719412
			 0.227685  0.460620  0.857898
			 0.302388 -0.857362 -0.416523
			 0.250565 -0.854295  0.455409
			 0.051750 -0.967906  0.245926
			 0.111629 -0.979216 -0.169337
			 0.555221 -0.388711  0.735278
			 0.222386  0.182456  0.957734
			 0.437721  0.109025  0.892476
			 0.342661 -0.736583 -0.583120
			 0.334067 -0.656883 -0.675947
			 0.197332 -0.681853 -0.704370
			 0.363129 -0.692365 -0.623513
			 0.277391 -0.718006 -0.638374
			 0.588068  0.394650  0.705994
			 0.540388  0.520565  0.661055
			 0.300270  0.704892  0.642624
			 0.191332  0.822827  0.535115
			-0.033964  0.994949  0.094458
			 0.195322  0.898581  0.392939
			 0.611743  0.176623  0.771086
			 0.641243 -0.510902  0.572526
			 0.584942 -0.691032  0.424638
			 0.366325 -0.930487  0.000341
			 0.211340 -0.958395 -0.191872
			 0.549616 -0.796338  0.252523
			-0.235271  0.885576 -0.400503
			-0.116463  0.278288 -0.953411
			-0.120135  0.803661 -0.582834
			 0.458796 -0.885813  0.069585
			 0.544001 -0.838707 -0.025153
			 0.368793 -0.877477 -0.306637
			 0.200040 -0.798212 -0.568191
			 0.381352 -0.844789 -0.375370
			 0.059903 -0.754799 -0.653215
			-0.019048 -0.059197 -0.998065
			 0.096521  0.981313  0.166457
			 0.083332  0.964584 -0.250266
			-0.245790  0.365317 -0.897848
			-0.037156  0.240841 -0.969853
			-0.047406  0.654641 -0.754452
			 0.081025  0.882063 -0.464112
			 0.616120  0.612743  0.494916
			 0.422533  0.634495  0.647211
			 0.436696  0.482352  0.759363
			 0.751877 -0.600308  0.272602
			 0.306340 -0.949706 -0.064913
			 0.551219 -0.828411  0.099465
			 0.413832 -0.720675 -0.556210
			 0.565640  0.171256  0.806674
			 0.729266 -0.074706  0.680140
			 0.459261 -0.641207 -0.614762
			 0.603366  0.211487  0.768910
			 0.692561  0.239436  0.680463
			 0.799603 -0.158465  0.579244
			 0.838306  0.119782  0.531880
			 0.750557  0.386740  0.535814
			-0.048246  0.997848 -0.044403
			 0.703218 -0.519201  0.485710
			 0.577490 -0.766528  0.280961
			 0.533510 -0.839546  0.102609
			 0.670154 -0.742133 -0.011495
			 0.688667 -0.667515 -0.283127
			 0.671364  0.572567  0.470572
			 0.800563  0.366719  0.473937
			 0.978312 -0.165100  0.125088
			 0.842747 -0.496765 -0.207370
			 0.674399 -0.643647 -0.361808
			 0.841839 -0.456757  0.287540
			 0.979895 -0.089809  0.178157
			 0.865883 -0.356988 -0.350437
		</DataArray>
	</PointData>
	<Points>
		<DataArray type="Float32" NumberOfComponents="3" format="ascii">
			 0.008791 -0.070596 -0.051399
			 0.009385 -0.070090 -0.051827
			 0.009093 -0.070136 -0.051377
			 0.009658 -0.070538 -0.051805
			 0.009456 -0.070824 -0.051419
			 0.008360 -0.070729 -0.051076
			 0.008572 -0.070499 -0.050603
			 0.009870 -0.070142 -0.052087
			 0.010245 -0.070181 -0.051603
			 0.009492 -0.070446 -0.051070
			 0.010209 -0.070556 -0.051948
			 0.008705 -0.071076 -0.050874
			 0.010009 -0.070823 -0.051546
			 0.009259 -0.071057 -0.050983
			 0.009795 -0.070885 -0.051000
			 0.008155 -0.071050 -0.050723
			 0.007820 -0.070601 -0.050831
			 0.008914 -0.070864 -0.050418
			 0.008252 -0.070987 -0.049836
			 0.007827 -0.070685 -0.049999
			 0.011071 -0.069686 -0.052742
			 0.010794 -0.070059 -0.052527
			 0.010405 -0.069873 -0.052028
			 0.010770 -0.070459 -0.051985
			 0.010535 -0.070598 -0.051530
			 0.007575 -0.071483 -0.050084
			 0.008127 -0.071487 -0.050215
			 0.008694 -0.071350 -0.050216
			 0.006548 -0.070892 -0.050146
			 0.005925 -0.071414 -0.049638
			 0.006478 -0.071407 -0.049760
			 0.006934 -0.070597 -0.050272
			 0.007382 -0.070518 -0.050482
			 0.007264 -0.070960 -0.049216
			 0.008010 -0.071332 -0.049368
			 0.006906 -0.070741 -0.049534
			 0.006172 -0.070670 -0.049603
			 0.011808 -0.069396 -0.053275
			 0.011550 -0.069750 -0.053019
			 0.011526 -0.070155 -0.052483
			 0.011290 -0.070322 -0.052051
			 0.011758 -0.069566 -0.052590
			 0.006995 -0.071932 -0.049461
			 0.007550 -0.071904 -0.049562
			 0.006443 -0.071925 -0.049326
			 0.005520 -0.072002 -0.048882
			 0.005208 -0.071153 -0.049530
			 0.005009 -0.071421 -0.049130
			 0.006712 -0.070944 -0.049073
			 0.007058 -0.071271 -0.048851
			 0.007771 -0.071577 -0.049002
			 0.005973 -0.070916 -0.049180
			 0.005619 -0.070666 -0.049471
			 0.005424 -0.070881 -0.049020
			 0.012305 -0.069195 -0.053319
			 0.011981 -0.069068 -0.053706
			 0.012517 -0.069060 -0.053808
			 0.012230 -0.069912 -0.053098
			 0.012471 -0.069695 -0.053484
			 0.012042 -0.070043 -0.052575
			 0.012308 -0.069579 -0.052728
			 0.006244 -0.072183 -0.048916
			 0.007358 -0.072091 -0.049085
			 0.006802 -0.072124 -0.048989
			 0.004977 -0.071902 -0.048662
			 0.005879 -0.072203 -0.048545
			 0.005324 -0.072223 -0.048436
			 0.004566 -0.071955 -0.048380
			 0.005223 -0.071163 -0.048631
			 0.006133 -0.071378 -0.048435
			 0.006847 -0.071658 -0.048559
			 0.006482 -0.071678 -0.048189
			 0.007726 -0.072200 -0.048664
			 0.005575 -0.071433 -0.048358
			 0.012999 -0.068869 -0.053883
			 0.012894 -0.069089 -0.053315
			 0.012564 -0.068431 -0.054141
			 0.011959 -0.068801 -0.054335
			 0.012012 -0.068413 -0.053995
			 0.011558 -0.068656 -0.053759
			 0.013234 -0.069325 -0.053921
			 0.012708 -0.068891 -0.054301
			 0.013266 -0.068846 -0.054389
			 0.012761 -0.069575 -0.052991
			 0.013148 -0.069609 -0.053373
			 0.005929 -0.071682 -0.048066
			 0.007163 -0.072313 -0.048642
			 0.006828 -0.072287 -0.048258
			 0.004697 -0.072374 -0.047921
			 0.005363 -0.071824 -0.048070
			 0.004025 -0.072435 -0.047729
			 0.004155 -0.071901 -0.048015
			 0.004812 -0.071809 -0.047929
			 0.006585 -0.072570 -0.047862
			 0.006326 -0.072027 -0.047791
			 0.007524 -0.072449 -0.048248
			 0.013119 -0.068358 -0.054195
			 0.013485 -0.068526 -0.053834
			 0.013448 -0.069073 -0.053428
			 0.012910 -0.068607 -0.054690
			 0.012234 -0.068081 -0.053429
			 0.012878 -0.068155 -0.053730
			 0.012222 -0.068059 -0.054319
			 0.012392 -0.068285 -0.054733
			 0.012219 -0.068872 -0.054962
			 0.011442 -0.069744 -0.054054
			 0.011218 -0.068779 -0.054488
			 0.011537 -0.068428 -0.054663
			 0.011406 -0.067954 -0.053582
			 0.013788 -0.069307 -0.054031
			 0.013593 -0.069530 -0.053588
			 0.013727 -0.068993 -0.054569
			 0.013400 -0.068838 -0.054988
			 0.007243 -0.072503 -0.047792
			 0.003526 -0.072445 -0.047532
			 0.003197 -0.072861 -0.047279
			 0.006385 -0.072369 -0.047405
			 0.013919 -0.069019 -0.053626
			 0.013136 -0.068376 -0.053307
			 0.012043 -0.068256 -0.052942
			 0.011188 -0.068061 -0.053079
			 0.013445 -0.069062 -0.052489
			 0.011211 -0.068153 -0.054260
			 0.013216 -0.069349 -0.054851
			 0.012247 -0.070055 -0.054076
			 0.010809 -0.069588 -0.053912
			 0.010634 -0.068253 -0.053992
			 0.010227 -0.068529 -0.053883
			 0.010314 -0.068112 -0.053433
			 0.014340 -0.069307 -0.054158
			 0.014022 -0.069387 -0.054825
			 0.013549 -0.069692 -0.054663
			 0.003117 -0.072352 -0.047135
			 0.002689 -0.072626 -0.047422
			 0.003070 -0.072642 -0.046540
			 0.002951 -0.073361 -0.047269
			 0.002602 -0.074072 -0.047421
			 0.003355 -0.073078 -0.046744
			 0.014551 -0.069450 -0.053604
			 0.013487 -0.068656 -0.053044
			 0.014367 -0.069191 -0.053142
			 0.014072 -0.069273 -0.052725
			 0.010387 -0.068238 -0.052542
			 0.011844 -0.068517 -0.052533
			 0.009976 -0.068119 -0.053016
			 0.013473 -0.069473 -0.052013
			 0.013703 -0.070343 -0.054076
			 0.012769 -0.070524 -0.053725
			 0.010387 -0.070357 -0.053323
			 0.012013 -0.070416 -0.053733
			 0.009513 -0.069765 -0.053171
			 0.009317 -0.070235 -0.052923
			 0.009813 -0.068473 -0.053520
			 0.009533 -0.068856 -0.053317
			 0.009159 -0.068506 -0.052669
			 0.014655 -0.069639 -0.054372
			 0.014003 -0.069960 -0.054467
			 0.002465 -0.072207 -0.047216
			 0.002580 -0.072294 -0.046502
			 0.001914 -0.072361 -0.048175
			 0.002148 -0.073911 -0.047697
			 0.003319 -0.073009 -0.046173
			 0.002840 -0.072473 -0.046038
			 0.003705 -0.074163 -0.046842
			 0.002887 -0.074481 -0.047218
			 0.002419 -0.074524 -0.047688
			 0.004038 -0.073814 -0.046377
			 0.003635 -0.073396 -0.046444
			 0.014779 -0.069869 -0.053813
			 0.014715 -0.070011 -0.053309
			 0.014373 -0.069687 -0.052637
			 0.010841 -0.068757 -0.052170
			 0.009628 -0.068574 -0.052076
			 0.012892 -0.069411 -0.051792
			 0.011640 -0.068820 -0.052163
			 0.010325 -0.069189 -0.051598
			 0.011086 -0.069088 -0.051845
			 0.013235 -0.069779 -0.051609
			 0.014140 -0.069883 -0.052221
			 0.013706 -0.069954 -0.051829
			 0.014262 -0.070265 -0.054130
			 0.014562 -0.070450 -0.053715
			 0.013483 -0.070974 -0.053098
			 0.011628 -0.071055 -0.053050
			 0.012185 -0.071003 -0.053130
			 0.010696 -0.071226 -0.052692
			 0.010177 -0.070724 -0.053012
			 0.009629 -0.070675 -0.052839
			 0.008858 -0.069198 -0.052740
			 0.008007 -0.070309 -0.052119
			 0.008607 -0.069657 -0.052557
			 0.007791 -0.070743 -0.051871
			 0.008890 -0.070948 -0.052295
			 0.008507 -0.069194 -0.052332
			 0.009064 -0.068690 -0.052054
			 0.002095 -0.071630 -0.047156
			 0.001895 -0.071429 -0.047662
			 0.002287 -0.071980 -0.046794
			 0.002629 -0.071678 -0.046387
			 0.002983 -0.071930 -0.046099
			 0.001816 -0.073402 -0.048209
			 0.001430 -0.071406 -0.048529
			 0.001624 -0.072193 -0.048617
			 0.001679 -0.072790 -0.048572
			 0.001981 -0.073985 -0.048208
			 0.003949 -0.073263 -0.045718
			 0.003419 -0.072891 -0.045697
			 0.003333 -0.072232 -0.045855
			 0.003540 -0.074872 -0.046929
			 0.004877 -0.074493 -0.046118
			 0.004281 -0.074729 -0.046649
			 0.003082 -0.074974 -0.047469
			 0.003263 -0.074903 -0.048053
			 0.002913 -0.074617 -0.048311
			 0.002564 -0.074311 -0.048551
			 0.005186 -0.074152 -0.045637
			 0.004700 -0.073619 -0.045496
			 0.014715 -0.070377 -0.052878
			 0.009222 -0.069176 -0.051332
			 0.008486 -0.069118 -0.051412
			 0.011613 -0.069262 -0.051661
			 0.012688 -0.069721 -0.051429
			 0.010049 -0.069469 -0.051127
			 0.013126 -0.070295 -0.051277
			 0.012650 -0.070272 -0.051027
			 0.014007 -0.070452 -0.051965
			 0.014383 -0.070476 -0.052355
			 0.013320 -0.070783 -0.051396
			 0.014175 -0.070957 -0.053018
			 0.012611 -0.071173 -0.052678
			 0.013288 -0.071184 -0.052642
			 0.010493 -0.071525 -0.052318
			 0.011049 -0.071483 -0.052407
			 0.011990 -0.071233 -0.052692
			 0.009593 -0.071200 -0.052413
			 0.007830 -0.069698 -0.051884
			 0.007256 -0.070615 -0.051619
			 0.006721 -0.070386 -0.051288
			 0.006277 -0.071372 -0.050897
			 0.007745 -0.071370 -0.051537
			 0.009390 -0.071505 -0.052044
			 0.008194 -0.069223 -0.051895
			 0.002197 -0.071090 -0.047175
			 0.002658 -0.071225 -0.046880
			 0.001334 -0.070904 -0.048452
			 0.001909 -0.070921 -0.047620
			 0.003246 -0.070707 -0.047441
			 0.004157 -0.070912 -0.047235
			 0.001885 -0.073452 -0.048809
			 0.001452 -0.071836 -0.048993
			 0.001295 -0.070679 -0.049029
			 0.001776 -0.072524 -0.049118
			 0.001730 -0.071763 -0.049471
			 0.002222 -0.073938 -0.048729
			 0.003857 -0.072683 -0.045489
			 0.004583 -0.072803 -0.045462
			 0.005036 -0.071600 -0.046566
			 0.003825 -0.075270 -0.047177
			 0.005874 -0.074531 -0.045371
			 0.005357 -0.074884 -0.046105
			 0.005059 -0.075220 -0.046594
			 0.004429 -0.075323 -0.046951
			 0.003618 -0.075148 -0.047757
			 0.004192 -0.074775 -0.048451
			 0.003459 -0.074680 -0.048496
			 0.003109 -0.074381 -0.048742
			 0.002763 -0.074052 -0.048961
			 0.005294 -0.073675 -0.045263
			 0.004926 -0.073202 -0.045312
			 0.005373 -0.073005 -0.045430
			 0.008101 -0.069494 -0.050461
			 0.008562 -0.069869 -0.049949
			 0.007625 -0.069327 -0.050983
			 0.007908 -0.069273 -0.051440
			 0.011544 -0.070280 -0.050778
			 0.011028 -0.069753 -0.051076
			 0.010544 -0.069788 -0.050879
			 0.010619 -0.070382 -0.050357
			 0.009905 -0.070089 -0.050220
			 0.012424 -0.070810 -0.050873
			 0.012892 -0.070715 -0.051042
			 0.013689 -0.070803 -0.051789
			 0.014035 -0.070965 -0.052331
			 0.013105 -0.071258 -0.052065
			 0.011966 -0.071012 -0.050774
			 0.012323 -0.071347 -0.051436
			 0.012433 -0.071314 -0.052145
			 0.010294 -0.071783 -0.051908
			 0.009739 -0.071804 -0.051798
			 0.011724 -0.071429 -0.052146
			 0.010854 -0.071709 -0.051967
			 0.007086 -0.069493 -0.050969
			 0.006262 -0.070364 -0.051013
			 0.005955 -0.070781 -0.050874
			 0.008464 -0.071611 -0.051627
			 0.006954 -0.072201 -0.050618
			 0.005304 -0.071829 -0.050325
			 0.005852 -0.072165 -0.050329
			 0.004750 -0.072133 -0.050045
			 0.002508 -0.070668 -0.047538
			 0.001523 -0.070221 -0.048342
			 0.001669 -0.070589 -0.047948
			 0.002547 -0.070109 -0.047933
			 0.004460 -0.070242 -0.047799
			 0.003110 -0.069996 -0.047956
			 0.005244 -0.071251 -0.046892
			 0.005446 -0.070971 -0.047284
			 0.005640 -0.070752 -0.047731
			 0.004915 -0.070582 -0.047707
			 0.002039 -0.073127 -0.049232
			 0.002325 -0.073529 -0.049154
			 0.001488 -0.071234 -0.049389
			 0.001718 -0.070973 -0.049756
			 0.001814 -0.069865 -0.048750
			 0.001556 -0.070226 -0.049308
			 0.002529 -0.072247 -0.049640
			 0.002222 -0.072664 -0.049504
			 0.002194 -0.071805 -0.049755
			 0.002200 -0.071087 -0.050068
			 0.002802 -0.073496 -0.049358
			 0.005561 -0.072052 -0.046200
			 0.005764 -0.071754 -0.046575
			 0.005741 -0.072442 -0.045867
			 0.004530 -0.075352 -0.047552
			 0.004167 -0.075183 -0.047917
			 0.005889 -0.074963 -0.045830
			 0.006696 -0.074504 -0.045296
			 0.006120 -0.073955 -0.045149
			 0.005656 -0.075289 -0.046840
			 0.004901 -0.075417 -0.047090
			 0.005213 -0.075323 -0.047477
			 0.004726 -0.075119 -0.047986
			 0.004511 -0.074322 -0.048791
			 0.005079 -0.074389 -0.048540
			 0.005802 -0.073553 -0.045218
			 0.006196 -0.073262 -0.045342
			 0.007443 -0.069463 -0.050455
			 0.008955 -0.070604 -0.049270
			 0.007355 -0.069704 -0.049878
			 0.008035 -0.070646 -0.048793
			 0.006744 -0.069496 -0.050555
			 0.011481 -0.071095 -0.050620
			 0.010409 -0.070746 -0.050043
			 0.009533 -0.070754 -0.049481
			 0.011281 -0.071710 -0.051380
			 0.009165 -0.072188 -0.051116
			 0.010150 -0.071999 -0.051386
			 0.010518 -0.071979 -0.050864
			 0.008610 -0.072207 -0.051006
			 0.006295 -0.069574 -0.050347
			 0.005776 -0.069757 -0.050317
			 0.005420 -0.070615 -0.050595
			 0.004992 -0.070372 -0.050351
			 0.007844 -0.072777 -0.049846
			 0.006889 -0.072865 -0.049840
			 0.005432 -0.072908 -0.049715
			 0.004145 -0.071477 -0.050116
			 0.003701 -0.072143 -0.049860
			 0.002387 -0.069658 -0.048688
			 0.002188 -0.069921 -0.048282
			 0.002753 -0.069785 -0.048284
			 0.005496 -0.070139 -0.048338
			 0.004045 -0.069806 -0.048298
			 0.004774 -0.069931 -0.048279
			 0.003458 -0.069595 -0.048941
			 0.005795 -0.071270 -0.047038
			 0.005996 -0.071001 -0.047440
			 0.006192 -0.070766 -0.047873
			 0.006214 -0.070382 -0.048427
			 0.001968 -0.070402 -0.049851
			 0.002596 -0.070801 -0.050186
			 0.002646 -0.069534 -0.049122
			 0.001932 -0.069882 -0.049489
			 0.002399 -0.069655 -0.049557
			 0.002920 -0.071961 -0.049765
			 0.003248 -0.072477 -0.049718
			 0.002850 -0.072843 -0.049666
			 0.002652 -0.071541 -0.049973
			 0.004098 -0.073469 -0.049328
			 0.006408 -0.071356 -0.047318
			 0.007060 -0.071573 -0.047312
			 0.006863 -0.071803 -0.046874
			 0.006668 -0.072024 -0.046429
			 0.006639 -0.072484 -0.045943
			 0.006602 -0.073015 -0.045523
			 0.005777 -0.075178 -0.047472
			 0.006883 -0.074957 -0.045774
			 0.006402 -0.075131 -0.046087
			 0.006211 -0.075254 -0.046934
			 0.007390 -0.074600 -0.045684
			 0.006550 -0.073713 -0.045256
			 0.007229 -0.073976 -0.045414
			 0.006234 -0.074863 -0.047483
			 0.005407 -0.074899 -0.048025
			 0.005328 -0.073730 -0.049058
			 0.006085 -0.074288 -0.048125
			 0.005927 -0.073996 -0.048581
			 0.008766 -0.071413 -0.048507
			 0.008147 -0.071757 -0.047736
			 0.007807 -0.071363 -0.047895
			 0.006416 -0.070094 -0.048812
			 0.005796 -0.069622 -0.049517
			 0.005515 -0.069791 -0.048927
			 0.010202 -0.071098 -0.049719
			 0.010744 -0.071514 -0.050187
			 0.011131 -0.071548 -0.050568
			 0.009745 -0.072239 -0.050357
			 0.008969 -0.072371 -0.050641
			 0.010329 -0.071948 -0.050210
			 0.005355 -0.069695 -0.049960
			 0.004361 -0.070394 -0.050162
			 0.004069 -0.069853 -0.049759
			 0.009270 -0.072422 -0.049377
			 0.008709 -0.072729 -0.048870