<?xml version="1.0"?>
<VTKFile type="PolyData" version="0.1" byte_order="LittleEndian" compressor="vtkZLibDataCompressor">
	<PolyData>
		<Piece NumberOfPoints="545" NumberOfVerts="0" NumberOfLines="0" NumberOfStrips="0" NumberOfPolys="1096">
		<PointData Normals="Normals">
		<DataArray type="Float32" Name="Normals" NumberOfComponents="3" format="ascii">
			-0.502774  0.405932 -0.763176
			-0.462141  0.438197 -0.770979
			-0.550276  0.220689 -0.805291
			-0.533002 -0.055297 -0.844305
			-0.450883  0.386291 -0.804664
			-0.442300  0.647799 -0.620263
			-0.340882  0.778760 -0.526623
			-0.453731  0.540703 -0.708356
			-0.455981  0.390632 -0.799680
			-0.438763 -0.288266 -0.851111
			-0.574332 -0.088526 -0.813822
			-0.558630 -0.075297 -0.825992
			-0.596308  0.054163 -0.800927
			-0.552781  0.439467 -0.708027
			-0.518815  0.030442 -0.854344
			-0.526786 -0.126355 -0.840554
			-0.562596 -0.099006 -0.820783
			-0.509149 -0.269836 -0.817285
			-0.535526 -0.145408 -0.831907
			-0.486709 -0.241540 -0.839507
			-0.521185  0.600615 -0.606322
			-0.569040  0.332260 -0.752195
			-0.412509  0.769499 -0.487553
			-0.237698  0.918151 -0.317014
			-0.160901  0.966816 -0.198439
			-0.480223  0.745287 -0.462529
			-0.304393  0.893565 -0.329980
			-0.159699  0.969679 -0.184984
			-0.524266 -0.254759 -0.812553
			-0.581157 -0.035072 -0.813035
			-0.605650  0.272023 -0.747791
			-0.700619  0.175373 -0.691648
			-0.595662 -0.086497 -0.798565
			-0.773168 -0.008659 -0.634142
			-0.435290 -0.421805 -0.795363
			-0.419584 -0.391638 -0.818883
			-0.487665 -0.373600 -0.789053
			-0.383818 -0.528803 -0.757001
			-0.446381 -0.278164 -0.850511
			-0.463606 -0.283380 -0.839503
			-0.624036 -0.312599 -0.716143
			-0.392145 -0.392585 -0.831925
			-0.454745  0.678748 -0.576635
			-0.085690  0.993736 -0.071733
			 0.019602  0.999544 -0.022985
			 0.087222  0.981056  0.172977
			 0.160611  0.956450  0.243735
			-0.314792  0.919611 -0.234995
			-0.447354  0.874771 -0.186146
			-0.689916  0.544793 -0.476672
			-0.137718  0.985758 -0.096509
			 0.028355  0.997622  0.062828
			-0.511799 -0.269474 -0.815749
			-0.451767 -0.415807 -0.789311
			-0.562481 -0.064518 -0.824289
			-0.442689 -0.441234 -0.780602
			-0.542278  0.147553 -0.827141
			-0.551772 -0.018589 -0.833788
			-0.800334  0.144030 -0.581997
			-0.723277 -0.143795 -0.675421
			-0.877443  0.230002 -0.420944
			-0.982311  0.029555 -0.184908
			-0.911680 -0.103523 -0.397647
			-0.345883 -0.527435 -0.776001
			-0.233685 -0.754770 -0.612954
			-0.240173 -0.676810 -0.695878
			-0.378685 -0.583723 -0.718238
			-0.333228 -0.482793 -0.809858
			-0.380658 -0.512422 -0.769755
			-0.572755 -0.563048 -0.595759
			-0.787263 -0.271437 -0.553659
			-0.558345  0.511371 -0.653262
			-0.351874  0.855828 -0.379135
			-0.026251  0.993209 -0.113347
			 0.160309  0.978783  0.127615
			 0.308714  0.890061  0.335392
			 0.133730  0.965038  0.225430
			 0.442697  0.869691  0.218306
			 0.321956  0.840299  0.436167
			 0.401706  0.810502  0.426284
			 0.214129  0.934494  0.284376
			 0.342677  0.829522  0.440983
			-0.217893  0.975963  0.004439
			-0.774232  0.607070 -0.178972
			-0.476372  0.870768  0.121788
			-0.721547  0.691013  0.043255
			 0.113769  0.972576  0.202859
			 0.011723  0.980230  0.197514
			-0.394799 -0.523514 -0.755027
			-0.549510 -0.228231 -0.803709
			-0.522970 -0.123263 -0.843391
			-0.456472 -0.428806 -0.779589
			-0.603082  0.033149 -0.796990
			-0.521370  0.801414 -0.293103
			-0.924734 -0.218610 -0.311571
			-0.946946  0.307967 -0.091922
			-0.907042  0.394126  0.148117
			-0.962204 -0.183684  0.201058
			-0.937507  0.023894  0.347145
			-0.938595 -0.247571  0.240309
			-0.156960 -0.786047 -0.597907
			-0.340047 -0.637344 -0.691492
			-0.235347 -0.753114 -0.614354
			-0.138297 -0.859019 -0.492911
			-0.027499 -0.907396 -0.419376
			-0.067745 -0.854058 -0.515748
			-0.069177 -0.831318 -0.551476
			-0.114163 -0.734216 -0.669249
			-0.248685 -0.594847 -0.764403
			-0.260169 -0.561480 -0.785527
			-0.301458 -0.576780 -0.759242
			-0.465236 -0.722336 -0.511650
			-0.780679 -0.414360 -0.467810
			-0.674037 -0.706478 -0.215784
			-0.813018 -0.571635 -0.110613
			-0.943960 -0.289456 -0.158603
			-0.968679 -0.149471  0.198293
			-0.709907 -0.016758 -0.704096
			-0.688805  0.522041 -0.503011
			-0.252143  0.967494  0.019469
			-0.027888  0.996003 -0.084852
			 0.274141  0.933437  0.231389
			 0.188583  0.952138  0.240562
			 0.314323  0.885678  0.341723
			 0.355716  0.829080  0.431384
			 0.336741  0.851274  0.402415
			 0.404691  0.810406  0.423637
			 0.410299  0.789342  0.456720
			 0.340531  0.843851  0.414674
			 0.267801  0.888059  0.373676
			-0.116350  0.935803  0.332769
			-0.606179  0.722536  0.332398
			 0.193208  0.900467  0.389653
			-0.327225 -0.560372 -0.760859
			-0.285821 -0.682959 -0.672216
			-0.547687 -0.257858 -0.795957
			-0.473997 -0.426386 -0.770404
			-0.597459  0.786091 -0.158444
			-0.218972  0.954006  0.204751
			-0.782676 -0.344755  0.518230
			-0.740590 -0.153895  0.654096
			-0.790834 -0.448712  0.416221
			-0.876279 -0.251443  0.410988
			-0.685206  0.420490  0.594711
			-0.134261 -0.832511 -0.537494
			-0.081211 -0.877084 -0.473421
			-0.069142 -0.891057 -0.448594
			 0.007199 -0.936755 -0.349912
			 0.012944 -0.935348 -0.353492
			 0.155349 -0.958467 -0.239180
			 0.035592 -0.927685 -0.371665
			 0.008295 -0.846499 -0.532325
			 0.096447 -0.913941 -0.394220
			 0.006624 -0.811212 -0.584715
			-0.124888 -0.686870 -0.715970
			-0.216459 -0.616111 -0.757333
			 0.044439 -0.837430 -0.544736
			-0.261952 -0.737043 -0.623016
			-0.160882 -0.681677 -0.713746
			-0.258876 -0.870664 -0.418242
			-0.448011 -0.878080 -0.168114
			-0.897032 -0.439998 -0.041666
			-0.698912 -0.712996  0.056197
			-0.794863 -0.606332  0.023556
			-0.754912 -0.394189  0.524140
			-0.936782 -0.241691  0.253030
			-0.716475  0.056593  0.695313
			-0.581440 -0.488420 -0.650672
			-0.751647  0.481982 -0.450245
			-0.808733  0.099517 -0.579696
			-0.751803 -0.195951 -0.629600
			 0.054858  0.952555  0.299382
			-0.127028  0.943445  0.306227
			 0.215649  0.884368  0.413991
			 0.259286  0.850915  0.456853
			 0.342674  0.779718  0.524037
			 0.422509  0.731369  0.535336
			 0.449735  0.801824  0.393467
			 0.368174  0.829454  0.420065
			 0.358882  0.864816  0.351136
			 0.408693  0.847605  0.338433
			 0.436885  0.749847  0.496851
			 0.384067  0.851799  0.356274
			 0.313544  0.845120  0.432969
			 0.036582  0.845922  0.532051
			-0.433114  0.701167  0.566372
			 0.231758  0.864014  0.446954
			-0.278190 -0.648948 -0.708151
			-0.212604 -0.745216 -0.632023
			-0.133254 -0.831345 -0.539546
			-0.337470  0.882787  0.326803
			-0.237903  0.918516  0.315800
			 0.181381  0.845975  0.501425
			 0.111372  0.930057  0.350129
			-0.006232  0.887615  0.460545
			-0.731355 -0.455386  0.507684
			-0.690015 -0.053365  0.721825
			-0.751491 -0.290339  0.592422
			-0.811303 -0.528583  0.249775
			-0.828392 -0.510365  0.230855
			-0.704489  0.170511  0.688927
			-0.670276 -0.117469  0.732756
			-0.584186  0.355394  0.729672
			 0.008641 -0.924284 -0.381606
			 0.032282 -0.941344 -0.335900
			 0.114486 -0.962176 -0.247203
			 0.202355 -0.934457 -0.292988
			 0.265721 -0.954404 -0.136031
			 0.364524 -0.926038 -0.097857
			 0.257564 -0.945661 -0.198459
			 0.144594 -0.898113 -0.415313
			-0.048658 -0.873171 -0.484980
			 0.092108 -0.893849 -0.438805
			-0.259399 -0.933826 -0.246335
			-0.096271 -0.971071 -0.218523
			-0.273021 -0.961611 -0.027629
			-0.397029 -0.916138  0.055307
			-0.529623 -0.840743  0.112478
			-0.542046 -0.484479  0.686634
			-0.509784  0.051915  0.858735
			-0.377754 -0.866953  0.325108
			-0.406797 -0.118661  0.905779
			-0.333792 -0.170414  0.927115
			-0.312799 -0.659175 -0.683846
			-0.746297 -0.219007 -0.628551
			-0.536772 -0.613016 -0.579730
			-0.398209 -0.695593 -0.597980
			-0.724158  0.295579 -0.623080
			-0.615380  0.717006 -0.327430
			-0.733245  0.095317 -0.673251
			 0.157996  0.878548  0.450767
			 0.247191  0.824804  0.508522
			 0.437704  0.661263  0.609218
			 0.345573  0.741686  0.574876
			 0.374799  0.875915  0.303807
			 0.441599  0.835059  0.328126
			 0.379191  0.847740  0.370878
			 0.432253  0.760403  0.484711
			 0.335630  0.894696  0.294741
			 0.307050  0.915427  0.260220
			-0.156009  0.734355  0.660594
			-0.519170  0.571176  0.635783
			 0.215393  0.803947  0.554324
			 0.332590  0.799458  0.500250
			 0.054387  0.844518  0.532759
			-0.184388 -0.765295 -0.616705
			-0.244792 -0.717945 -0.651638
			-0.057539 -0.895201 -0.441932
			-0.395021  0.915264  0.079062
			-0.196496  0.929100  0.313310
			-0.030860  0.841583  0.539245
			 0.015830  0.790192  0.612655
			 0.084296  0.829150  0.552634
			 0.283936  0.791733  0.540869
			 0.213537  0.761462  0.612027
			 0.382751  0.646964  0.659499
			-0.765883 -0.484368  0.422861
			-0.524223 -0.246264  0.815196
			-0.614195 -0.694510  0.374727
			-0.611353 -0.599093  0.517045
			-0.420716 -0.364234  0.830862
			-0.288585  0.390491  0.874206
			 0.152392 -0.973892 -0.168262
			 0.084672 -0.983366 -0.160690
			 0.275411 -0.958612 -0.072191
			 0.242652 -0.929454 -0.277913
			 0.534061 -0.840899  0.087568
			 0.495233 -0.866641  0.060640
			 0.293074 -0.944836 -0.146261
			 0.677500 -0.703191  0.215677
			 0.265775 -0.948539 -0.172156
			 0.134784 -0.955417 -0.262699
			 0.141993 -0.989509 -0.026635
			-0.134869 -0.990698  0.018123
			-0.338705 -0.419146  0.842375
			-0.405868 -0.133735  0.904094
			-0.149454 -0.894074  0.422250
			-0.474576 -0.306159  0.825254
			-0.314507 -0.725003 -0.612744
			-0.641877 -0.181693 -0.744971
			-0.321491 -0.758235 -0.567206
			-0.414651 -0.575030 -0.705270
			-0.617396  0.437933 -0.653481
			-0.644984  0.286927 -0.708286
			-0.606256  0.082271 -0.791003
			-0.499972  0.731633 -0.463401
			-0.441502  0.887323 -0.133172
			 0.474197  0.604831  0.639778
			 0.373689  0.838687  0.396184
			 0.395999  0.804578  0.442537
			 0.372169  0.797315  0.475162
			 0.483975  0.750122  0.450651
			 0.539522  0.761413  0.359395
			 0.547188  0.665336  0.507853
			 0.579879  0.709618  0.400228
			 0.586429  0.634029  0.504092
			 0.003993  0.715691  0.698405
			 0.165287  0.675508  0.718588
			-0.230681 -0.803084 -0.549402
			-0.063081 -0.926651 -0.370591
			-0.152110  0.985266  0.078186
			-0.019953  0.928894  0.369807
			 0.160375  0.767036  0.621237
			 0.099875  0.876707  0.470542
			 0.129620  0.790763  0.598241
			 0.185674  0.703990  0.685509
			 0.095420  0.777415  0.621709
			 0.307199  0.624770  0.717838
			 0.436186  0.517596  0.736095
			 0.480270  0.543266  0.688624
			 0.434356  0.564093  0.702235
			-0.485454 -0.619799  0.616591
			-0.385525 -0.724281  0.571653
			-0.423436 -0.174950  0.888873
			-0.526605 -0.628553  0.572371
			-0.169535  0.215287  0.961722
			-0.411653  0.039989  0.910463
			 0.225156 -0.970566 -0.085479
			 0.255729 -0.964992 -0.058247
			-0.189620 -0.930195 -0.314295
			-0.071270 -0.991399 -0.109768
			 0.248592 -0.968072 -0.032224
			 0.256427 -0.966554  0.004241
			 0.116903 -0.986853  0.111605
			 0.243044 -0.963082  0.115769
			 0.554994 -0.810619  0.186759
			 0.385212 -0.914134  0.126375
			 0.286535 -0.924270 -0.252236
			 0.319440 -0.942631 -0.096978
			 0.775363 -0.477614  0.413156
			 0.704901 -0.640744  0.304239
			 0.754886 -0.580658  0.304932
			 0.567511 -0.804014  0.177463
			 0.376621 -0.920918  0.100331
			 0.758655 -0.516663  0.396864
			 0.800252 -0.471938  0.369960
			 0.267636 -0.949450 -0.164058
			 0.320516 -0.945893  0.050558
			 0.307438 -0.922259  0.234350
			-0.091256 -0.879338  0.467373
			-0.489321 -0.318518  0.811857
			-0.456631 -0.623714  0.634405
			-0.640959 -0.430599  0.635418
			-0.308771 -0.724856 -0.615828
			-0.495132 -0.200991 -0.845249
			-0.253946 -0.684066 -0.683787
			-0.134435 -0.687810 -0.713334
			-0.362524 -0.314140 -0.877435
			-0.555475  0.412489 -0.722011
			-0.576774  0.262591 -0.773549
			-0.500182  0.038145 -0.865080
			-0.346645  0.825210 -0.445943
			 0.538940  0.631579  0.557361
			 0.547682  0.572217  0.610419
			 0.353978  0.712213  0.606179
			 0.472330  0.570615  0.671791
			 0.500807  0.613540  0.610541
			 0.591750  0.668873  0.449934
			 0.804079  0.084696  0.588459
			 0.832393  0.239387  0.499815
			 0.730309  0.264092  0.630003
			 0.763463  0.126883  0.633265
			 0.702190  0.361736  0.613251
			 0.226351  0.585689  0.778289
			 0.006168  0.411554  0.911364
			-0.315848 -0.804799 -0.502532
			 0.103539  0.938591  0.329130
			 0.112707  0.989464  0.090876
			 0.297717  0.847778  0.438904
			 0.452439  0.777549  0.436711
			 0.287232  0.732022  0.617772
			 0.384148  0.765532  0.516131
			 0.372010  0.826211  0.423065
			 0.229140  0.856350  0.462773
			 0.205162  0.770731  0.603227
			 0.141913  0.678362  0.720892
			 0.247802  0.516246  0.819807
			 0.302723  0.566960  0.766104
			 0.157383  0.609898  0.776695
			 0.365369  0.526384  0.767740
			 0.427076  0.462149  0.777190
			 0.493291  0.232072  0.838336
			 0.633055  0.152244  0.758988
			 0.454818  0.593391  0.664099
			 0.639624  0.463829  0.612980
			-0.612012 -0.492679  0.618634
			-0.044445  0.181707  0.982348
			-0.418230 -0.374391  0.827596
			-0.695081 -0.548455  0.464823
			-0.138405 -0.987891 -0.070112
			-0.090369 -0.967234 -0.237260
			-0.039012 -0.991833 -0.121428
			 0.091771 -0.994830  0.043492
			 0.217815 -0.926179  0.307814
			 0.202034 -0.958391  0.201668
			 0.233591 -0.960695  0.150005
			 0.602121 -0.517867  0.607671
			 0.365628 -0.831930  0.417383
			 0.668628 -0.544376  0.506548
			 0.702295 -0.561011  0.438233
			 0.325700 -0.932964  0.153291
			 0.819220 -0.137303  0.556801
			 0.830847 -0.252431  0.495957
			 0.816367 -0.075665  0.572555
			 0.791119 -0.440532  0.424337
			 0.600441 -0.706411  0.374771
			 0.362960 -0.855587  0.369095
			 0.258127 -0.870809  0.418404
			 0.112617 -0.847967  0.517947
			-0.518919 -0.533218  0.668133
			-0.470062 -0.541296  0.697166
			-0.719393 -0.347930  0.601181
			-0.206586 -0.653772 -0.727945
			-0.313136 -0.708454 -0.632486
			-0.098856 -0.631637 -0.768935
			 0.209679 -0.514296 -0.831586
			-0.015941 -0.548871 -0.835755
			-0.105894 -0.616477 -0.780219
			-0.319157 -0.218527 -0.922163
			 0.020367 -0.459566 -0.887910
			-0.451693  0.328454 -0.829513
			-0.189034 -0.019311 -0.981781
			-0.182143  0.797461 -0.575221
			 0.170994  0.980993 -0.091729
			 0.636890  0.369619  0.676574
			 0.773678  0.104679  0.624872
			 0.343834  0.454732  0.821582
			 0.538601  0.354364  0.764418
			 0.743965 -0.029104  0.667585
			-0.280727 -0.820384 -0.498160
			 0.345081  0.894176  0.285252
			 0.650889  0.724066  0.228195
			 0.474424  0.845466  0.245171
			 0.338079  0.805949  0.485951
			 0.594624  0.798081  0.097415
			 0.658440  0.719271  0.221600
			 0.528608  0.744905  0.407050
			 0.299810  0.450151  0.841117
			 0.369843  0.401106  0.838051
			 0.244510  0.381936  0.891258
			 0.333669  0.493234  0.803359
			 0.401190  0.472379  0.784796
			 0.535883 -0.111188  0.836939
			-0.656570 -0.499324  0.565323
			 0.145868  0.073897  0.986540
			-0.108355 -0.378636  0.919181
			-0.395368 -0.530000  0.750189
			-0.103701 -0.938700 -0.328768
			 0.224257 -0.958120  0.178086
			 0.120747 -0.992666 -0.005897
			 0.357074 -0.817373  0.452105
			 0.472833 -0.439718  0.763595
			 0.761442 -0.238922  0.602597
			 0.755700  0.072334  0.650911
			 0.592494 -0.359742  0.720789
			 0.225166 -0.806306  0.546966
			 0.425739 -0.610110  0.668216
			-0.016661 -0.743660  0.668350
			-0.129595 -0.714168 -0.687873
			-0.031708 -0.607729 -0.793512
			-0.134067 -0.605842 -0.784207
			-0.230272 -0.767500 -0.598263
			 0.129948 -0.439308 -0.888888
			 0.487106 -0.441966 -0.753255
			 0.420115 -0.130848 -0.897988
			 0.679799 -0.061649 -0.730803
			-0.032708 -0.539113 -0.841598
			 0.185364 -0.039497 -0.981876
			 0.447001 -0.252660 -0.858110
			-0.130719  0.152600 -0.979605
			-0.100511  0.522566 -0.846653
			 0.368396  0.295145 -0.881575
			 0.568753  0.083621 -0.818246
			 0.274547  0.798577 -0.535629
			 0.605985  0.793832 -0.051121
			 0.673098  0.106193  0.731889
			 0.608588  0.213967  0.764094
			 0.470936  0.055048  0.880448
			-0.106437 -0.861074 -0.497215
			 0.858891  0.511418  0.027539
			 0.762961  0.644869 -0.045102
			 0.860404  0.476434 -0.180873
			 0.580983  0.810846  0.070621
			 0.540011  0.805418  0.244315
			 0.478875  0.729768  0.487973
			 0.414517  0.500625  0.759968
			 0.699503  0.713897 -0.032348
			 0.672512  0.721482 -0.164895
			 0.652643  0.748432 -0.117930
			 0.681004  0.731574 -0.032128
			 0.303292  0.294805  0.906148
			 0.314304  0.261967  0.912462
			 0.374424  0.257956  0.890655
			 0.427436  0.122155  0.895755
			 0.479975 -0.353329  0.802984
			 0.193155 -0.254389  0.947617
			 0.221146 -0.482021  0.847791
			 0.077642 -0.953851 -0.290067
			 0.352663 -0.891724  0.283649
			 0.349623 -0.924050  0.154583
			 0.299354 -0.953332 -0.039307
			 0.420843 -0.860082  0.288356
			 0.489821 -0.586537  0.645019
			 0.526127 -0.279950  0.803006
			 0.552340 -0.091724  0.828557
			 0.077515 -0.683204 -0.726102
			 0.109678 -0.849482 -0.516092
			 0.498697 -0.149398 -0.853804
			 0.148406 -0.588109 -0.795049
			 0.595960 -0.161842 -0.786536
			 0.704793  0.110385 -0.700773
			 0.836604  0.107949 -0.537067
			 0.801317  0.431474 -0.414393
			 0.746722  0.424176 -0.512329
			 0.835297  0.272533 -0.477499
			 0.711285  0.582265 -0.393753
			 0.627739  0.771228  0.105595
			 0.641936  0.608514  0.466507
			 0.619010  0.450294  0.643477
			 0.564583  0.198887  0.801055
			 0.793943  0.568795 -0.214771
			 0.699173  0.714952  0.000895
			 0.372093 -0.122365  0.920094
			 0.424399  0.133876  0.895524
			 0.212507 -0.933029 -0.290340
			 0.389081 -0.921183  0.006205
			 0.325248 -0.915504 -0.236781
			 0.487768 -0.863497  0.128278
			 0.681671 -0.502835  0.531490
			 0.516058 -0.385824  0.764738
			 0.326373 -0.690722 -0.645278
			 0.367415 -0.856684 -0.362076
			 0.614803 -0.348760 -0.707378
			 0.797364 -0.009445 -0.603424
			 0.896705  0.442497 -0.010743
			 0.679973  0.610379  0.406292
			 0.867272  0.021833  0.497356
			 0.748031  0.337704  0.571320
			 0.615014 -0.067026  0.785663
			 0.947326 -0.034771 -0.318377
			 0.496846 -0.839417 -0.220280
			 0.773135 -0.596246  0.216223
			 0.741148 -0.632817 -0.224147
			 0.648857 -0.591538 -0.478610
			 0.974976 -0.214719  0.057604
		</DataArray>
	</PointData>
	<Points>
		<DataArray type="Float32" NumberOfComponents="3" format="ascii">
			-0.011110 -0.074386 -0.040204
			-0.010630 -0.074130 -0.040390
			-0.009647 -0.074462 -0.041165
			-0.011443 -0.074958 -0.040039
			-0.011631 -0.074197 -0.039834
			-0.010473 -0.073413 -0.039892
			-0.011387 -0.073338 -0.039182
			-0.010962 -0.073456 -0.039606
			-0.010079 -0.073724 -0.040425
			-0.009512 -0.073314 -0.040472
			-0.009456 -0.075140 -0.041329
			-0.009854 -0.075333 -0.041034
			-0.008232 -0.074711 -0.042258
			-0.009191 -0.073980 -0.041263
			-0.012597 -0.074500 -0.039359
			-0.012525 -0.075871 -0.039220
			-0.013043 -0.075804 -0.038908
			-0.009049 -0.076077 -0.041423
			-0.012660 -0.076715 -0.039012
			-0.011036 -0.077003 -0.039931
			-0.013033 -0.073751 -0.038630
			-0.013137 -0.074298 -0.038998
			-0.008628 -0.073368 -0.041197
			-0.009663 -0.073061 -0.039729
			-0.010097 -0.073064 -0.039374
			-0.013409 -0.073669 -0.038179
			-0.012638 -0.073338 -0.038211
			-0.012116 -0.073208 -0.038241
			-0.007726 -0.075847 -0.042360
			-0.007752 -0.074785 -0.042609
			-0.007924 -0.073913 -0.042332
			-0.013520 -0.074627 -0.038756
			-0.013399 -0.076152 -0.038652
			-0.013990 -0.075498 -0.038112
			-0.009447 -0.077067 -0.040773
			-0.009922 -0.077121 -0.040478
			-0.008357 -0.076433 -0.041722
			-0.008822 -0.077215 -0.041027
			-0.011714 -0.077620 -0.039349
			-0.012660 -0.077866 -0.038829
			-0.012903 -0.078300 -0.038516
			-0.010333 -0.077322 -0.040202
			-0.007049 -0.073545 -0.042856
			-0.009079 -0.073008 -0.039922
			-0.008286 -0.072994 -0.040699
			-0.010134 -0.073079 -0.038663
			-0.009006 -0.073113 -0.039156
			-0.013041 -0.073306 -0.037664
			-0.013485 -0.073390 -0.037356
			-0.013810 -0.073776 -0.037846
			-0.012432 -0.073163 -0.037789
			-0.010966 -0.073109 -0.038126
			-0.006933 -0.075483 -0.042962
			-0.007029 -0.076185 -0.042645
			-0.007351 -0.074586 -0.042897
			-0.007864 -0.076417 -0.042015
			-0.006582 -0.073901 -0.043361
			-0.006948 -0.074380 -0.043179
			-0.013865 -0.074831 -0.038313
			-0.013721 -0.076441 -0.038336
			-0.014197 -0.074309 -0.037710
			-0.014347 -0.075057 -0.037466
			-0.014291 -0.075653 -0.037711
			-0.009819 -0.077625 -0.040217
			-0.007534 -0.077835 -0.040912
			-0.008463 -0.077772 -0.040638
			-0.006945 -0.076894 -0.042168
			-0.010969 -0.077923 -0.039575
			-0.012580 -0.078738 -0.038436
			-0.012783 -0.079027 -0.038012
			-0.013582 -0.077709 -0.037971
			-0.005588 -0.073412 -0.043716
			-0.005923 -0.073318 -0.043300
			-0.006634 -0.073016 -0.042216
			-0.008573 -0.072976 -0.040200
			-0.008455 -0.073176 -0.039438
			-0.007163 -0.073014 -0.041190
			-0.007921 -0.073296 -0.039762
			-0.007033 -0.073391 -0.040506
			-0.007096 -0.073927 -0.039560
			-0.010756 -0.073274 -0.037602
			-0.008915 -0.073422 -0.038639
			-0.013125 -0.073236 -0.036953
			-0.014060 -0.073785 -0.037326
			-0.013525 -0.073369 -0.036630
			-0.013902 -0.073590 -0.036886
			-0.011765 -0.073175 -0.037186
			-0.012692 -0.073223 -0.036551
			-0.005921 -0.076289 -0.043192
			-0.005215 -0.075077 -0.044204
			-0.006659 -0.075074 -0.043262
			-0.005141 -0.075969 -0.043826
			-0.005556 -0.074265 -0.044112
			-0.004716 -0.073041 -0.044242
			-0.014081 -0.076464 -0.037904
			-0.014327 -0.074354 -0.037196
			-0.014341 -0.074240 -0.036564
			-0.014396 -0.075744 -0.037191
			-0.014181 -0.074421 -0.035993
			-0.013993 -0.076863 -0.036997
			-0.007836 -0.078155 -0.040396
			-0.006358 -0.076976 -0.042426
			-0.006002 -0.077299 -0.042261
			-0.006776 -0.077958 -0.041035
			-0.006956 -0.078527 -0.039977
			-0.007739 -0.078496 -0.039923
			-0.008721 -0.078738 -0.039434
			-0.009689 -0.078569 -0.039480
			-0.010113 -0.078195 -0.039681
			-0.011030 -0.078501 -0.039164
			-0.011909 -0.078965 -0.038565
			-0.012439 -0.079396 -0.037883
			-0.013397 -0.078352 -0.037946
			-0.012965 -0.079344 -0.037158
			-0.013274 -0.078897 -0.037245
			-0.013819 -0.077824 -0.037310
			-0.013935 -0.077353 -0.037127
			-0.004332 -0.073959 -0.045103
			-0.004421 -0.073065 -0.044737
			-0.005156 -0.073109 -0.043553
			-0.005697 -0.073127 -0.042886
			-0.006685 -0.073016 -0.041508
			-0.005806 -0.073140 -0.042274
			-0.005925 -0.073277 -0.041787
			-0.006102 -0.074052 -0.039985
			-0.005978 -0.073917 -0.040481
			-0.008745 -0.074146 -0.037709
			-0.006880 -0.074870 -0.037956
			-0.009905 -0.073420 -0.037868
			-0.011365 -0.073342 -0.036904
			-0.013069 -0.073337 -0.036198
			-0.013744 -0.073584 -0.036184
			-0.012063 -0.073345 -0.036508
			-0.004189 -0.075835 -0.044397
			-0.005196 -0.076526 -0.043400
			-0.004826 -0.074922 -0.044524
			-0.003896 -0.074863 -0.045153
			-0.003920 -0.072615 -0.044810
			-0.004079 -0.072691 -0.044239
			-0.014109 -0.075728 -0.036562
			-0.013462 -0.077120 -0.036493
			-0.013907 -0.075544 -0.036127
			-0.013884 -0.074911 -0.035450
			-0.013932 -0.074223 -0.035600
			-0.004600 -0.077404 -0.042541
			-0.004852 -0.077615 -0.042121
			-0.005622 -0.077901 -0.041461
			-0.005983 -0.078318 -0.040490
			-0.006364 -0.078443 -0.040147
			-0.006095 -0.078645 -0.039249
			-0.007196 -0.078707 -0.039531
			-0.008728 -0.079123 -0.038877
			-0.007518 -0.078865 -0.039151
			-0.009731 -0.079442 -0.038446
			-0.010717 -0.079337 -0.038541
			-0.010453 -0.078470 -0.039376
			-0.009126 -0.079314 -0.038583
			-0.011888 -0.079454 -0.038161
			-0.011495 -0.079288 -0.038474
			-0.011891 -0.079832 -0.037600
			-0.012240 -0.079843 -0.037170
			-0.013629 -0.078309 -0.037115
			-0.012777 -0.079517 -0.036614
			-0.013126 -0.079083 -0.036664
			-0.013173 -0.078980 -0.036001
			-0.013702 -0.078019 -0.036700
			-0.013329 -0.078327 -0.036053
			-0.003681 -0.074534 -0.045547
			-0.003416 -0.072599 -0.045848
			-0.003725 -0.073534 -0.045843
			-0.003961 -0.073938 -0.045505
			-0.004478 -0.073258 -0.042627
			-0.004516 -0.073031 -0.043302
			-0.005089 -0.073592 -0.041736
			-0.005569 -0.073819 -0.040890
			-0.004344 -0.074668 -0.040192
			-0.005737 -0.075063 -0.038647
			-0.007511 -0.075238 -0.036587
			-0.010074 -0.073948 -0.036779
			-0.009325 -0.074464 -0.036351
			-0.008752 -0.074577 -0.036716
			-0.005918 -0.075301 -0.038194
			-0.006504 -0.075529 -0.037215
			-0.011085 -0.073614 -0.036586
			-0.012666 -0.073491 -0.035906
			-0.013270 -0.073614 -0.035764
			-0.011599 -0.074013 -0.035401
			-0.003431 -0.076224 -0.044329
			-0.004076 -0.076950 -0.043342
			-0.004276 -0.077228 -0.042910
			-0.003075 -0.072017 -0.045247
			-0.003368 -0.072264 -0.044884
			-0.003118 -0.073619 -0.042317
			-0.004009 -0.072933 -0.043542
			-0.002735 -0.072762 -0.043801
			-0.013519 -0.075965 -0.036112
			-0.013084 -0.077232 -0.036120
			-0.013222 -0.076416 -0.036014
			-0.013095 -0.076100 -0.035336
			-0.012939 -0.076284 -0.034762
			-0.013516 -0.074868 -0.034894
			-0.012670 -0.076117 -0.033942
			-0.012796 -0.074908 -0.034388
			-0.003860 -0.077698 -0.042010
			-0.004297 -0.077818 -0.041714
			-0.005395 -0.078215 -0.040655
			-0.007264 -0.079123 -0.038296
			-0.004920 -0.078337 -0.039530
			-0.005797 -0.078880 -0.037586
			-0.006891 -0.079104 -0.037945
			-0.008655 -0.079448 -0.038219
			-0.010730 -0.080103 -0.037425
			-0.010090 -0.080016 -0.037552
			-0.011609 -0.080038 -0.037212
			-0.010902 -0.080286 -0.036922
			-0.011446 -0.080197 -0.036621
			-0.011914 -0.080018 -0.036315
			-0.012393 -0.079783 -0.036421
			-0.012789 -0.079341 -0.035914
			-0.012918 -0.077725 -0.035903
			-0.011671 -0.080016 -0.035646
			-0.012203 -0.078273 -0.035471
			-0.011810 -0.078679 -0.035445
			-0.002873 -0.075993 -0.044781
			-0.003338 -0.073970 -0.046331
			-0.002975 -0.074476 -0.046379
			-0.002450 -0.075354 -0.045583
			-0.003100 -0.072638 -0.046333
			-0.002626 -0.071961 -0.046315
			-0.003426 -0.073422 -0.046268
			-0.004260 -0.073634 -0.041860
			-0.004316 -0.074161 -0.040910
			-0.004463 -0.075011 -0.039717
			-0.003890 -0.074634 -0.040514
			-0.007583 -0.075564 -0.035883
			-0.008021 -0.075393 -0.035625
			-0.009098 -0.074816 -0.035567
			-0.004087 -0.075608 -0.039396
			-0.005911 -0.075612 -0.037572
			-0.005854 -0.075772 -0.036846
			-0.012771 -0.074353 -0.034779
			-0.013097 -0.074159 -0.035126
			-0.010934 -0.074845 -0.034244
			-0.009819 -0.074925 -0.034773
			-0.012017 -0.074343 -0.034749
			-0.002901 -0.076454 -0.044283
			-0.002509 -0.076288 -0.044595
			-0.002906 -0.077195 -0.043148
			-0.002589 -0.071764 -0.045431
			-0.002138 -0.071573 -0.045677
			-0.001733 -0.071724 -0.045382
			-0.001555 -0.072612 -0.044157
			-0.001957 -0.072811 -0.043868
			-0.003687 -0.073984 -0.041512
			-0.002547 -0.073613 -0.042546
			-0.002781 -0.074732 -0.041056
			-0.012498 -0.077156 -0.035316
			-0.012199 -0.077764 -0.035398
			-0.012227 -0.077147 -0.034674
			-0.012539 -0.076583 -0.034138
			-0.011896 -0.076543 -0.033707
			-0.012176 -0.075136 -0.033966
			-0.004708 -0.078108 -0.040729
			-0.001795 -0.077332 -0.042761
			-0.004557 -0.078201 -0.039885
			-0.009707 -0.080080 -0.037235
			-0.005125 -0.078554 -0.037565
			-0.006223 -0.079149 -0.036231
			-0.006663 -0.079254 -0.037058
			-0.005770 -0.078846 -0.036470
			-0.008121 -0.079613 -0.037061
			-0.010099 -0.080248 -0.036923
			-0.009832 -0.080379 -0.035990
			-0.010449 -0.080363 -0.036120
			-0.010852 -0.080019 -0.035237
			-0.011337 -0.079378 -0.035359
			-0.010239 -0.080372 -0.035420
			-0.010848 -0.078497 -0.035001
			-0.001736 -0.075996 -0.045252
			-0.002829 -0.074081 -0.046803
			-0.001889 -0.075019 -0.046411
			-0.002071 -0.074507 -0.047074
			-0.002276 -0.072024 -0.046782
			-0.002696 -0.072761 -0.046778
			-0.002635 -0.073338 -0.047009
			-0.001779 -0.071572 -0.046856
			-0.001997 -0.071508 -0.046270
			-0.003751 -0.075296 -0.039963
			-0.005817 -0.076004 -0.036175
			-0.006729 -0.075997 -0.035498
			-0.008978 -0.075311 -0.034807
			-0.003596 -0.075902 -0.039370
			-0.004088 -0.075989 -0.038355
			-0.004930 -0.076098 -0.036919
			-0.004189 -0.076170 -0.037784
			-0.005262 -0.076141 -0.036545
			-0.011513 -0.074884 -0.034040
			-0.010588 -0.075566 -0.033533
			-0.001754 -0.076420 -0.044726
			-0.002171 -0.077220 -0.043135
			-0.001375 -0.071317 -0.046361
			-0.001612 -0.071470 -0.045900
			-0.000560 -0.072323 -0.044611
			-0.000542 -0.071534 -0.045707
			-0.000807 -0.072676 -0.044202
			-0.001403 -0.073948 -0.042421
			-0.000651 -0.073600 -0.042990
			-0.001838 -0.074631 -0.041652
			-0.001941 -0.075721 -0.040783
			-0.002996 -0.075065 -0.040665
			-0.002607 -0.075551 -0.040551
			-0.011701 -0.077680 -0.034960
			-0.011775 -0.077077 -0.034196
			-0.010021 -0.077093 -0.033025
			-0.010984 -0.077335 -0.034022
			-0.010901 -0.076089 -0.033230
			-0.011477 -0.076041 -0.033422
			-0.003684 -0.077848 -0.041171
			-0.003723 -0.077939 -0.040500
			-0.001676 -0.077124 -0.043497
			-0.001179 -0.077278 -0.043121
			-0.003104 -0.077758 -0.040596
			-0.001776 -0.077418 -0.041475