<?xml version="1.0"?>
<VTKFile type="PolyData" version="0.1" byte_order="LittleEndian" compressor="vtkZLibDataCompressor">
	<PolyData>
		<Piece NumberOfPoints="1025" NumberOfVerts="0" NumberOfLines="0" NumberOfStrips="0" NumberOfPolys="2046">
		<PointData Normals="Normals">
		<DataArray type="Float32" Name="Normals" NumberOfComponents="3" format="ascii">
			 0.987714  0.106433  0.114422
			 0.969535  0.220857  0.105946
			 0.904856 -0.379211 -0.193481
			 0.915144 -0.398828 -0.058716
			 0.686654  0.635306  0.353402
			 0.841144  0.442921  0.310320
			 0.925112 -0.322452 -0.200479
			 0.998736 -0.040175  0.030217
			 0.929017  0.297913  0.219489
			 0.600677  0.681705  0.417689
			 0.700114  0.610057  0.371039
			 0.775877 -0.551358 -0.306626
			 0.595008 -0.721005 -0.355128
			 0.939348  0.226612  0.257435
			 0.999190 -0.000057  0.040241
			 0.954925 -0.263606 -0.136495
			 0.673476 -0.726594 -0.135983
			 0.785700 -0.609607 -0.105140
			 0.501443 -0.820885 -0.273320
			 0.303594  0.821103  0.483343
			 0.424739  0.690506  0.585490
			 0.564888  0.689360  0.453524
			 0.986845 -0.161510  0.007183
			 0.765360 -0.586916 -0.264110
			 0.936910  0.195721  0.289643
			 0.290547  0.847046  0.445078
			 0.848052  0.431777  0.307206
			 0.591164  0.739524  0.321917
			 0.659431 -0.649075 -0.379279
			 0.803208 -0.519470 -0.291560
			 0.352780 -0.809945 -0.468546
			 0.356668 -0.824392 -0.439506
			 0.334137 -0.849788 -0.407693
			 0.448318 -0.773933 -0.447257
			 0.846522  0.422638  0.323694
			 0.911466 -0.367855 -0.184151
			 0.969644 -0.208224 -0.128195
			 0.989862 -0.103411 -0.097359
			 0.873360  0.428356  0.231848
			 0.999110 -0.028124 -0.031424
			 0.986457 -0.122251 -0.109347
			 0.907985 -0.321918 -0.268200
			 0.979803 -0.136123 -0.146483
			 0.808645 -0.462898 -0.363069
			 0.945325 -0.279495 -0.168056
			 0.830896 -0.457926 -0.316093
			 0.847908 -0.498346 -0.180839
			 0.678050 -0.688936 -0.256154
			 0.327260 -0.888388 -0.321976
			 0.476787 -0.821928 -0.311623
			 0.164663 -0.908747 -0.383490
			 0.214893 -0.890143 -0.401828
			 0.128026  0.872769  0.471044
			 0.078564  0.834380  0.545563
			 0.087691  0.833697  0.545216
			 0.292672  0.869453  0.397987
			 0.201432  0.870853  0.448376
			 0.685450  0.667435  0.291014
			 0.767211 -0.584790 -0.263452
			 0.945130 -0.269934 -0.184025
			 0.935171  0.347609  0.067994
			 0.704956 -0.648211 -0.287853
			 0.053570  0.896874  0.439029
			 0.087649  0.907809  0.410123
			 0.376210  0.835888  0.399697
			 0.230511  0.896175  0.379125
			 0.826723  0.557225  0.077648
			 0.580314  0.784663  0.218035
			 0.283411  0.896585  0.340315
			 0.624492 -0.675631 -0.391832
			 0.854994 -0.435686 -0.281360
			 0.836054 -0.489582 -0.247637
			 0.678292 -0.643407 -0.354891
			 0.752001 -0.570675 -0.329884
			 0.211925 -0.848675 -0.484601
			 0.119776 -0.878574 -0.462343
			 0.381031 -0.806743 -0.451643
			 0.548277 -0.729558 -0.408824
			 0.575493 -0.720599 -0.386710
			 0.490192 -0.760652 -0.425583
			 0.931768 -0.303083 -0.199873
			 0.947585  0.293357  0.126589
			 0.997508  0.003540 -0.070468
			 0.830094 -0.386346 -0.402096
			 0.917646 -0.302224 -0.258043
			 0.549655 -0.632679 -0.545524
			 0.684734 -0.600469 -0.413008
			 0.539930 -0.736153 -0.408111
			 0.254068 -0.876520 -0.408855
			 0.123110 -0.883517 -0.451931
			 0.053285 -0.884091 -0.464266
			 0.005337  0.868517  0.495630
			 0.017974  0.877361  0.479494
			 0.026806  0.894663  0.445937
			 0.388744  0.848130  0.359936
			 0.268696  0.820553  0.504475
			 0.063530  0.831215  0.552310
			 0.918337  0.389788  0.068723
			 0.815674  0.571465  0.090018
			 0.547336  0.779039  0.305813
			 0.825444 -0.492755 -0.275381
			 0.991332 -0.028319 -0.128292
			 0.978652  0.196848 -0.059090
			 0.057386  0.906290  0.418743
			 0.025581  0.914979  0.402689
			 0.018460  0.920049  0.391368
			-0.000760  0.924990  0.379991
			 0.932869  0.355980 -0.055072
			 0.768409  0.637106  0.060368
			 0.569757  0.812398  0.124043
			 0.259506  0.923446  0.282674
			 0.274655  0.939346  0.205410
			 0.119707  0.938987  0.322448
			 0.843030 -0.457433 -0.282941
			 0.794643 -0.536209 -0.284645
			 0.751473 -0.577245 -0.319495
			 0.217709 -0.865164 -0.451768
			 0.084895 -0.884853 -0.458070
			 0.018472 -0.874227 -0.485165
			 0.050663 -0.910761 -0.409815
			 0.014500 -0.883570 -0.468075
			 0.045230 -0.909915 -0.412322
			 0.400571 -0.822757 -0.403254
			 0.634049 -0.689590 -0.349926
			 0.992136  0.066795 -0.105853
			 0.937590 -0.197680 -0.286090
			 0.778832 -0.001303 -0.627231
			 0.857895 -0.140614 -0.494211
			 0.765899 -0.405445 -0.499012
			 0.500466 -0.699069 -0.510722
			 0.210866 -0.808555 -0.549340
			 0.216970 -0.631474 -0.744422
			 0.497970 -0.486442 -0.717913
			 0.064995 -0.927183 -0.368928
			 0.173935 -0.874351 -0.453053
			 0.244221 -0.872920 -0.422335
			 0.205766 -0.889023 -0.409021
			 0.010251 -0.889335 -0.457141
			 0.079663  0.882710  0.463117
			 0.198593  0.890325  0.409735
			 0.147363  0.836488  0.527800
			 0.386141  0.850151  0.357965
			 0.062146  0.772299  0.632212
			-0.078369  0.777250  0.624292
			-0.059901  0.867627  0.493595
			 0.548413  0.819137  0.168100
			 0.582610  0.807714 -0.090352
			 0.885274  0.444183 -0.137814
			 0.915177 -0.339096 -0.217864
			 0.984251 -0.051012 -0.169257
			 0.016679  0.897163  0.441384
			-0.080146  0.895571  0.437640
			-0.209819  0.885784  0.413959
			-0.321424  0.876377  0.358679
			-0.234470  0.919125  0.316596
			-0.045207  0.975360  0.215939
			 0.895155  0.439474 -0.074562
			 0.983817  0.064359 -0.167217
			 0.538126  0.834382  0.119280
			 0.728715  0.684660 -0.014701
			 0.138386  0.980993  0.136021
			 0.375888  0.917110  0.132732
			 0.874869 -0.418368 -0.244075
			 0.899073 -0.354840 -0.256430
			 0.782181 -0.538991 -0.312541
			 0.114614 -0.882156 -0.456797
			 0.119009 -0.896871 -0.425980
			-0.059133 -0.896753 -0.438562
			 0.023586 -0.898762 -0.437801
			-0.081000 -0.902055 -0.423953
			-0.219530 -0.906989 -0.359414
			 0.440112 -0.819300 -0.367490
			 0.240759 -0.888807 -0.389946
			 0.560356 -0.744815 -0.362287
			 0.694960 -0.625240 -0.355114
			 0.948409  0.151359 -0.278586
			 0.844951  0.163541 -0.509228
			 0.668327 -0.242675 -0.703170
			 0.545758  0.083669 -0.833755
			 0.477973  0.457297 -0.749947
			 0.539324  0.577751 -0.612645
			 0.252726 -0.835028 -0.488730
			 0.082114 -0.722321 -0.686666
			 0.026500 -0.819215 -0.572874
			 0.274386 -0.237387 -0.931858
			-0.055528 -0.535495 -0.842711
			 0.157271 -0.895109 -0.417187
			-0.097947 -0.964649 -0.244660
			-0.247130 -0.928575 -0.276904
			 0.618276 -0.692201 -0.372281
			 0.291707 -0.628129 -0.721361
			 0.086056 -0.753708 -0.651551
			 0.947820 -0.290172 -0.132049
			 0.822335 -0.506511 -0.259252
			-0.049643  0.899351  0.434399
			-0.039995  0.963377  0.265153
			 0.228503  0.956532  0.181199
			-0.056394  0.924288  0.377506
			-0.081109  0.944832  0.317354
			-0.090861  0.847587  0.522820
			-0.112252  0.818629  0.563246
			-0.136874  0.851791  0.505686
			-0.066212  0.790393  0.609012
			-0.127155  0.887315  0.443287
			 0.351924  0.935913 -0.014708
			 0.254122  0.927032 -0.275743
			 0.431163  0.809571 -0.398364
			 0.745545  0.541988 -0.387828
			 0.946026 -0.241621 -0.215997
			 0.917736 -0.313045 -0.244465
			-0.116578  0.896153  0.428158
			-0.129957  0.895523  0.425616
			-0.216396  0.874375  0.434328
			-0.339963  0.860996  0.378301
			-0.380016  0.835541  0.396812
			-0.345657  0.850595  0.396244
			-0.436576  0.809255  0.393075
			-0.506120  0.812166  0.290221
			-0.342706  0.886013  0.312304
			-0.191885  0.948924  0.250445
			-0.295530  0.895411  0.333018
			-0.275079  0.909097  0.312848
			-0.058579  0.985764  0.157601
			-0.156918  0.965553  0.207565
			 0.969550  0.192719 -0.151104
			 0.852165  0.509219 -0.120458
			 0.935729  0.285299 -0.207403
			 0.959851 -0.091780 -0.265072
			 0.492553  0.868981  0.047568
			 0.003782  0.987699  0.156323
			 0.575143  0.817804 -0.020162
			 0.775179  0.616809 -0.136546
			 0.973054 -0.196386 -0.120820
			 0.962100 -0.227674 -0.150091
			 0.846427 -0.445654 -0.291469
			 0.047059 -0.919732 -0.389716
			-0.039654 -0.910752 -0.411046
			-0.166533 -0.892187 -0.419845
			-0.079682 -0.909041 -0.409017
			-0.265181 -0.879685 -0.394757
			-0.487497 -0.793461 -0.364371
			-0.491280 -0.827846 -0.270766
			 0.205508 -0.900882 -0.382332
			 0.387734 -0.835507 -0.389347
			 0.573291 -0.729592 -0.372872
			 0.736216 -0.582606 -0.344320
			 0.219743  0.333268 -0.916867
			 0.118848  0.712677 -0.691352
			 0.021315  0.831909 -0.554503
			-0.033691 -0.551450 -0.833527
			 0.070439 -0.685763 -0.724409
			-0.037449 -0.684443 -0.728104
			-0.150343 -0.089733 -0.984553
			 0.181941 -0.796935 -0.576014
			 0.199405 -0.790002 -0.579772
			 0.016915 -0.867648 -0.496892
			-0.079234 -0.948036 -0.308138
			-0.048261 -0.975869 -0.212955
			-0.343255 -0.928736 -0.140089
			 0.129106 -0.538599 -0.832612
			 0.256890 -0.658551 -0.707331
			 0.457208 -0.400314 -0.794172
			 0.436141 -0.418772 -0.796499
			-0.033851  0.994329  0.100818
			-0.199927  0.978510 -0.050466
			-0.202543  0.978991  0.023521
			-0.000456  0.994530 -0.104450
			-0.127122  0.963672  0.234897
			-0.168978  0.985573  0.009548
			-0.101232  0.761126  0.640655
			-0.089048  0.791390  0.604791
			-0.021532  0.842508  0.538254
			-0.121359  0.830976  0.542909
			-0.062207  0.984304  0.165155
			-0.295555  0.812831  0.501949
			-0.269714  0.785759  0.556630
			-0.008413  0.934720 -0.355286
			 0.883930 -0.353594 -0.306005
			-0.317434  0.816832  0.481685
			-0.324639  0.842408  0.430067
			-0.352201  0.818164  0.454491
			-0.446528  0.755258  0.479790
			-0.506472  0.821146  0.263067
			-0.764795  0.606541  0.217248
			-0.652598  0.734159  0.187419
			-0.290270  0.901744  0.320312
			-0.181553  0.922258  0.341289
			-0.179641  0.925499  0.333439
			-0.239978  0.939804  0.243266
			-0.239378  0.941603  0.236819
			-0.263087  0.915314  0.304935
			 0.944625  0.198600 -0.261231
			 0.947909  0.059036 -0.313023
			 0.857366 -0.386334 -0.340102
			 0.899705 -0.241098 -0.363872
			 0.265522  0.962305  0.058877
			-0.240160  0.957755  0.158202
			-0.280203  0.945183  0.167675
			-0.319070  0.938838  0.129530
			 0.450867  0.891949  0.033853
			 0.590984  0.804942 -0.052978
			 0.808583  0.556689 -0.190500
			 0.922655  0.264458 -0.280659
			 0.803669  0.587450 -0.094964
			 0.633756  0.769853 -0.075360
			 0.954896 -0.233504 -0.183439
			 0.915309 -0.296409 -0.272676
			 0.800089 -0.497465 -0.335241
			-0.016717 -0.914642 -0.403920
			-0.447588 -0.816543 -0.364585
			-0.452290 -0.804737 -0.384489
			-0.287989 -0.878209 -0.381852
			-0.420820 -0.819042 -0.389975
			-0.571327 -0.728556 -0.377877
			-0.662132 -0.698988 -0.270180
			-0.741840 -0.598506 -0.302429
			-0.698267 -0.701314 -0.143462
			 0.143433 -0.885584 -0.441778
			 0.494063 -0.770461 -0.402854
			 0.322642 -0.856556 -0.402757
			 0.837872 -0.440070 -0.322970
			 0.594242 -0.682497 -0.425528
			 0.774862 -0.523533 -0.354263
			-0.234259  0.480042 -0.845389
			-0.314004  0.663417 -0.679176
			-0.317914  0.687191 -0.653223
			-0.291092  0.710894 -0.640231
			-0.183263  0.911019 -0.369403
			-0.180221 -0.323919 -0.928761
			-0.073577 -0.566329 -0.820889
			-0.151100 -0.499978 -0.852755
			-0.347387  0.132343 -0.928336
			 0.155305 -0.744965 -0.648773
			-0.005663 -0.789480 -0.613750
			-0.272010 -0.766768 -0.581444
			-0.274291 -0.826074 -0.492308
			-0.321055 -0.878664 -0.353373
			-0.301614 -0.937490 -0.173612
			-0.641681 -0.765539 -0.046852
			 0.337847 -0.427440 -0.838543
			-0.057762 -0.048716 -0.997141
			 0.182106 -0.530829 -0.827683
			 0.305340 -0.208744 -0.929082
			-0.270566  0.909938 -0.314335
			-0.239093  0.963344 -0.121671
			-0.083598  0.984053 -0.157005
			-0.229203  0.935279 -0.269666
			-0.222174  0.723085  0.654054
			-0.089622  0.855952  0.509229
			-0.051017  0.893744  0.445667
			-0.264665  0.792064  0.550079
			-0.082492  0.827637  0.555169
			-0.140153  0.806975  0.573715
			-0.097236  0.988421  0.116484
			-0.057716  0.992180 -0.110668
			-0.346223  0.758092  0.552653
			-0.269269  0.787494  0.554389
			-0.197108  0.832872  0.517177
			-0.347430  0.776490  0.525695
			-0.177813  0.849879  0.496073
			-0.550388  0.638296  0.538192
			-0.776979  0.471617  0.416991
			-0.312144  0.899620  0.305370
			-0.523637  0.820595  0.228970
			-0.860117  0.491924  0.134941
			-0.969847  0.234092  0.067803
			-0.986163  0.093564  0.136849
			-0.227118  0.937492  0.263676
			-0.252389  0.952437  0.170774
			-0.394550  0.895909  0.204152
			-0.288542  0.928536  0.233590
			-0.324826  0.922371  0.209094
			-0.283674  0.928771  0.238566
			-0.358438  0.899797  0.248771
			 0.945762 -0.017236 -0.324404
			 0.765304 -0.507885 -0.395427
			 0.857481 -0.320685 -0.402351
			 0.941734  0.068233 -0.329367
			 0.927784  0.001529 -0.373115
			 0.182381  0.972227  0.146670
			-0.393428  0.900452  0.185472
			-0.415332  0.887520  0.199517
			-0.221441  0.943865  0.245119
			-0.442478  0.870712  0.214648
			 0.608418  0.793551  0.010204
			 0.846649  0.475415 -0.239092
			 0.767857  0.626700 -0.132827
			 0.791711  0.579425 -0.193550
			 0.870390  0.414076 -0.266386
			 0.868856  0.451293 -0.203529
			 0.671195  0.736690 -0.082373
			 0.947948  0.316706 -0.033049
			 0.955113  0.292838 -0.044771
			-0.295765 -0.873390 -0.386928
			-0.044728 -0.902060 -0.429287
			-0.610358 -0.724640 -0.319937
			-0.341449 -0.851545 -0.397849
			-0.201993 -0.899546 -0.387320
			-0.417734 -0.837942 -0.351215
			-0.351078 -0.854627 -0.382567
			-0.532959 -0.765375 -0.360771
			-0.640829 -0.705700 -0.302202
			-0.665810 -0.678249 -0.310928
			-0.793031 -0.563589 -0.231233
			-0.948745 -0.311697 -0.052225
			-0.845462 -0.507841 -0.165200
			-0.907117 -0.399591 -0.132156
			-0.933835 -0.357121  0.020433
			 0.201161 -0.833095 -0.515254
			 0.046589 -0.865726 -0.498344
			 0.332211 -0.831091 -0.446010
			-0.022624 -0.887286 -0.460664
			 0.293235 -0.825221 -0.482724
			 0.443901 -0.780904 -0.439478
			 0.541519 -0.684232 -0.488451
			 0.397199 -0.717325 -0.572432
			 0.368227 -0.798691 -0.475922
			 0.660485 -0.616938 -0.427957
			-0.301093  0.512306 -0.804292
			-0.413171  0.563214 -0.715597
			-0.325201  0.581477 -0.745741
			-0.335055  0.762835 -0.553011
			-0.232904 -0.207083 -0.950196
			-0.022000 -0.702800 -0.711047
			-0.269864 -0.611481 -0.743817
			-0.562666 -0.646097 -0.515719
			-0.584434 -0.697296 -0.414988
			-0.647531 -0.633602 -0.423382
			-0.585072 -0.777560 -0.230416
			-0.738374 -0.668473 -0.089148
			-0.856064 -0.514924 -0.044811
			-0.795994 -0.605139 -0.014202
			-0.792252 -0.610082 -0.011706
			 0.081127  0.045289 -0.995674
			-0.019591  0.298557 -0.954191
			-0.008232  0.614205 -0.789104
			-0.126147  0.660796 -0.739889
			 0.037770 -0.181535 -0.982659
			-0.140221 -0.458879 -0.877364
			-0.126730  0.882801 -0.452329
			-0.037429  0.934280 -0.354570
			-0.180453  0.930268 -0.319433
			-0.185426  0.848221 -0.496123
			-0.253796  0.804935 -0.536346
			-0.290010  0.781315  0.552668
			-0.594118  0.572226  0.565315
			-0.093224  0.951836  0.292091
			-0.650391  0.647094  0.397820
			-0.349225  0.811942  0.467752
			-0.447758  0.682574  0.577586
			-0.133308  0.804947  0.578178
			-0.099282  0.974957 -0.199004
			-0.150992  0.987095 -0.053332
			-0.385813  0.764253  0.516783
			-0.235468  0.809896  0.537236
			-0.756995  0.518223  0.397999
			-0.875711  0.316075  0.365001
			-0.948500  0.104373  0.299089
			-0.696101  0.699482  0.161769
			-0.618737  0.763144  0.186484
			-0.994396 -0.087835 -0.058830
			-0.927961  0.371401  0.030805
			-0.991230 -0.084827 -0.101328
			-0.988942 -0.144943 -0.031391
			-0.342384  0.923511  0.172920
			-0.282494  0.954742  0.093083
			-0.232643  0.957918  0.168137
			-0.330346  0.940099  0.084172
			-0.357780  0.926957  0.112888
			-0.318746  0.931606  0.174675
			-0.373485  0.879554  0.294777
			-0.320832  0.924620  0.205290
			-0.356314  0.907961  0.220562
			-0.549066  0.808078  0.213394
			 0.732818 -0.505359 -0.455620
			 0.740870 -0.488673 -0.460771
			 0.803456 -0.437536 -0.403758
			 0.784505 -0.471303 -0.403020
			 0.805370 -0.413093 -0.425126
			 0.884454 -0.220238 -0.411384
			 0.965111  0.152174 -0.213083
			 0.933179 -0.056112 -0.355005
			 0.097974  0.988777  0.112786
			-0.336126  0.925621  0.173912
			 0.880936  0.466984 -0.076666
			 0.478007  0.878066 -0.022558
			 0.775529  0.605101 -0.180020
			 0.839851  0.524327 -0.140466
			 0.739689  0.654113 -0.158105
			 0.692842  0.698332 -0.179728
			 0.760331  0.615436 -0.207690
			 0.891763  0.427039 -0.149652
			-0.201394 -0.894481 -0.399180
			-0.124788 -0.883041 -0.452400
			-0.498816 -0.762448 -0.412135
			-0.409659 -0.819087 -0.401591
			-0.311274 -0.861961 -0.400165
			-0.688089 -0.666655 -0.286540
			-0.671191 -0.672384 -0.312094
			-0.704913 -0.589887 -0.393866
			-0.750692 -0.572206 -0.330214
			-0.776057 -0.558761 -0.292443
			-0.752413 -0.613265 -0.240375
			-0.992973 -0.056358  0.104060
			-0.887643 -0.427149 -0.172144
			-0.992561  0.035751  0.116376
			-0.917359 -0.392486  0.066384
			-0.869782  0.355503  0.342194
			-0.968479 -0.048730  0.244283
			 0.127880 -0.828919 -0.544555
			 0.199170 -0.772329 -0.603191
			-0.143021 -0.827172 -0.543444
			 0.052869 -0.792124 -0.608066
			 0.551215 -0.636181 -0.539848
			 0.677346 -0.546860 -0.492084
			 0.657719 -0.604910 -0.448876
			 0.408989 -0.758256 -0.507716
			 0.258609 -0.741324 -0.619323
			 0.644111 -0.576110 -0.503207
			-0.588221 -0.462057 -0.663701
			-0.170709 -0.093337 -0.980891
			-0.768582 -0.525923 -0.364262
			-0.775045 -0.479200 -0.411912
			-0.821744 -0.524253 -0.223375
			-0.938063 -0.339152  0.070804
			-0.958809 -0.282165  0.032684
			-0.927400 -0.347823 -0.137651
			-0.094849  0.438801 -0.893564
			-0.411624  0.119054 -0.903544
			-0.063508  0.804953 -0.589931
			-0.182535  0.698104 -0.692338
			 0.004957  0.820288 -0.571929
			-0.211200  0.859784 -0.464936
			-0.667812  0.602938  0.436454
			-0.149784  0.949032  0.277313
			-0.406272  0.824705  0.393451
			-0.942294  0.136181  0.305839
			-0.886004  0.295425  0.357380
			-0.967669  0.208623  0.141754
			-0.800085  0.516288  0.305467
			-0.604938  0.653750  0.454601
			-0.837245  0.329956  0.436063
			-0.482631  0.688384  0.541474
			-0.752339  0.488286  0.442226
			-0.271982  0.895820 -0.351470
			-0.324699  0.944786 -0.044156
			-0.282620  0.947566  0.149143
			-0.491188  0.840781 -0.227645
			-0.822286  0.566349  0.055626
			-0.893866 -0.391260 -0.218907
			-0.997873  0.003423 -0.065093
			-0.983253  0.098265 -0.153487
			-0.987541 -0.059395 -0.145725
			-0.918511 -0.324461 -0.225973
			-0.315053  0.938609  0.140549
			-0.379107  0.909610  0.169964
			-0.169117  0.984157  0.053234
			-0.468050  0.878940  0.091620
			-0.318095  0.946325  0.057314
			-0.327524  0.940441  0.091098
			-0.311017  0.945911  0.092307
			-0.331732  0.932956  0.139809
			-0.321978  0.937940  0.128836
			-0.294808  0.948291  0.117614
			-0.322008  0.929967  0.177405
			-0.500369  0.859070  0.107837
			-0.394279  0.902433  0.173661
			-0.281652  0.939627  0.194351
			-0.671218  0.736841  0.080818
			 0.769963 -0.439050 -0.463025
			 0.748797 -0.439494 -0.496133
			 0.955898 -0.203662 -0.211615
			 0.801865 -0.432669 -0.412081
			 0.981883 -0.141464 -0.126072
			 0.862417 -0.326184 -0.387093
			 0.957676 -0.135839 -0.253782
			 0.982176  0.176914  0.063489
			 0.997731 -0.064221  0.020219
			 0.527018  0.847430 -0.064137
			 0.328825  0.940533 -0.085272
			 0.467861  0.876354 -0.114501
			-0.028754  0.998867  0.037923
			 0.642329  0.757104 -0.119193
			 0.603436  0.785834 -0.135387
			 0.778485  0.625605 -0.050792
			 0.967317  0.250534  0.039125
			-0.224365 -0.866523 -0.445868
			-0.529304 -0.730160 -0.432092
			-0.528432 -0.710922 -0.464058
			-0.878027 -0.382422 -0.287791
			-0.873205 -0.351715 -0.337358
			-0.790810 -0.481612 -0.377717
			-0.883789 -0.377709 -0.276139
			-0.307651 -0.845069 -0.437274
			-0.965363 -0.077140  0.249245
			 0.138131 -0.739019 -0.659371
			-0.179095 -0.804682 -0.566050
			-0.289164 -0.760362 -0.581579
			-0.044586 -0.764572 -0.642994
			-0.129460 -0.788083 -0.601802
			 0.004531 -0.765902 -0.642941
			 0.708291 -0.543298 -0.450723
			 0.202815 -0.830690 -0.518479
			 0.527464 -0.703398 -0.476459
			 0.602480 -0.764003 -0.230905
			 0.379269 -0.881839 -0.280206
			 0.103647 -0.801261 -0.589269
			 0.769637 -0.601918 -0.212965
			 0.821004 -0.517048 -0.242103
			 0.726775 -0.588814 -0.353689
			 0.705200 -0.610026 -0.361334
			-0.485850 -0.194226 -0.852189
			-0.837048 -0.226476 -0.498056
			-0.859826 -0.344223 -0.377107
			-0.884276 -0.381698 -0.269004
			-0.953634 -0.266355 -0.140131
			-0.994839 -0.101376  0.004330
			-0.440187  0.436407 -0.784719
			-0.833424 -0.164802 -0.527489
			-0.682740  0.179162 -0.708356
			-0.511969  0.574698 -0.638443
			-0.606920  0.594375 -0.527604
			-0.888262  0.448097  0.100990
			-0.593288  0.784179  0.181858
			-0.991099 -0.131737 -0.019163
			-0.942033  0.203684  0.266622
			-0.502346  0.864047  0.032727
			-0.731331  0.677909 -0.074802
			-0.802226  0.494837 -0.334020
			-0.901907  0.423918 -0.082813
			-0.965335 -0.065368 -0.252696
			 0.977880 -0.187092 -0.093523
			-0.953570 -0.188770 -0.234669
			 0.781704 -0.500930 -0.371494
			-0.893285 -0.364389 -0.263176
			-0.505982  0.850565  0.143251
			-0.265530  0.941781  0.206260
			-0.194486  0.948721  0.249205
			-0.339828  0.924585  0.172221
			-0.317227  0.925570  0.206611
			-0.433828  0.856673  0.279114
			-0.128437  0.989652  0.063982
			-0.100434  0.993522  0.053171
			-0.463699  0.876987  0.126004
			-0.324778  0.915844  0.236111
			-0.348257  0.927829  0.133604
			-0.327584  0.934218  0.141160
			-0.107829  0.980529  0.164122
			-0.323228  0.930261  0.173606
			-0.350433  0.921590  0.166939
			-0.233640  0.944410  0.231308
			-0.645852  0.763186  0.020531
			-0.549554  0.831227  0.083974
			-0.517747  0.832864  0.195642
			-0.415166  0.896943  0.152087
			 0.918373 -0.278606 -0.281017
			 0.722199 -0.543054 -0.428393
			 0.784538 -0.482827 -0.389073
			 0.955536 -0.266446 -0.126323
			 0.935530 -0.001462  0.353244
			 0.975950  0.016875  0.217343
			 0.970441 -0.127779  0.204738
			 0.048141  0.998557  0.023776
			 0.286581  0.957844  0.020146
			 0.582853  0.809978  0.064951
			 0.773483  0.566711  0.283836
			 0.892649  0.444400  0.075411
			 0.941640  0.203356  0.268254
			-0.757944 -0.482525 -0.438965
			-0.545801 -0.631156 -0.551129
			-0.798547 -0.484517 -0.357162
			-0.862295 -0.348843 -0.367092
			-0.317238 -0.768609 -0.555518
			-0.179133 -0.807452 -0.562079
			-0.205573 -0.806520 -0.554316
			-0.191288 -0.786638 -0.587035
			-0.193964 -0.846204 -0.496303
			-0.157655 -0.846865 -0.507903
			-0.227171 -0.828030 -0.512601
			-0.095193 -0.847445 -0.522279
			 0.748769 -0.615434 -0.246140
			 0.045279 -0.696649 -0.715982
			-0.045788 -0.841936 -0.537631
			 0.269500 -0.959340 -0.083887
			 0.136562 -0.984829 -0.107060
			 0.057123 -0.958095 -0.280697
			 0.510564 -0.857674 -0.060987
			 0.833819 -0.542307 -0.103193
			 0.782637 -0.608073  0.133139
			 0.831587 -0.549770 -0.078848
			 0.774501 -0.609206  0.170342
			 0.760976 -0.646972  0.048398
			-0.904504 -0.311990 -0.290748
			-0.932692 -0.239077 -0.270051
			-0.773065  0.181594 -0.607778
			-0.868759 -0.223217 -0.442077
			-0.872931  0.098837 -0.477726
			-0.843042  0.329250 -0.425294
			-0.995766  0.037142 -0.084082
			-0.913428  0.373282 -0.162205
			-0.923367 -0.262551 -0.280106
			-0.943685  0.129118 -0.304611
			-0.948573 -0.067606 -0.309254
			-0.728204  0.685136  0.017526
			-0.982204  0.123709 -0.141317
			-0.810876 -0.378647 -0.446213
			-0.294253  0.918335  0.264717
			-0.288548  0.938340  0.190415
			-0.277318  0.828790  0.486006
			-0.363326  0.847637  0.386660
			-0.219976  0.721201  0.656872
			 0.024526  0.993865  0.107847
			-0.064930  0.960818  0.269466
			-0.063186  0.993421  0.095506
			-0.158516  0.892227  0.422852
			-0.408777  0.906593  0.104840
			 0.385587  0.885631  0.258807
			 0.772566  0.624081  0.116895
			-0.166560  0.899902  0.403031
			 0.762791  0.608644  0.218407
			-0.425655  0.811967  0.399409
			-0.353253  0.825917  0.439402
			-0.545677  0.827186  0.134159
			-0.609427  0.788236  0.085343
			-0.756787  0.636546  0.148599
			 0.860676 -0.484284 -0.157183
			 0.963523 -0.259976 -0.063530
			 0.983652 -0.130105  0.124507
			 0.734167 -0.028566  0.678367
			 0.870927 -0.070232  0.486368
			 0.855355  0.134694  0.500226
			 0.912763 -0.084755  0.399600
			 0.031533  0.996204  0.081133
			 0.325901  0.930217  0.168774
			 0.597394  0.783781  0.169728
			 0.529702  0.792812  0.301438
			 0.646079  0.661113  0.381460
			 0.673006  0.488890  0.555021
			 0.754509  0.269424  0.598438
			-0.621944 -0.592947 -0.511468
			-0.441890 -0.732813 -0.517416
			-0.497784 -0.758824 -0.419997
			-0.328375 -0.819917 -0.468941
			-0.212835 -0.841074 -0.497289
			-0.227949 -0.846003 -0.481995
			-0.248974 -0.919025 -0.305621
			-0.159974 -0.916168 -0.367485
			-0.338403 -0.897075 -0.284148
			-0.255929 -0.914676 -0.312839
			 0.819092 -0.571297  0.052036
			-0.153116 -0.925489 -0.346448
			-0.142302 -0.973038 -0.181514
			 0.057810 -0.985767  0.157864
			 0.294837 -0.949961  0.103174
			-0.038856 -0.998286 -0.043775
			 0.621698 -0.775926  0.106915
			 0.430575 -0.853561  0.293324
			 0.840848 -0.487332  0.235548
			 0.646831 -0.406293  0.645396
			 0.648272 -0.649323  0.397649
			 0.733348 -0.640185  0.228833
			 0.644298 -0.709824  0.284658
			 0.704190 -0.665672  0.246977
			 0.683840 -0.405798  0.606375
			 0.702431 -0.552398  0.448829
			 0.698256 -0.440055  0.564616
			 0.649768 -0.681964  0.335748
			-0.923730 -0.228815 -0.307191
			-0.904441  0.425922 -0.024044
			-0.656682  0.752875  0.044136
			-0.967281  0.251544  0.033049
			-0.986895 -0.014716 -0.160690
			-0.621722 -0.646807 -0.441704
			-0.715240 -0.625287 -0.312168
			-0.278465  0.797659  0.534975
			-0.249929  0.716962  0.650769
			-0.210916  0.794617  0.569296
			-0.109063  0.668941  0.735271
			-0.205135  0.414410  0.886671
			-0.061517  0.382705  0.921820
			-0.097798  0.436010  0.894612
			 0.231521  0.915646  0.328620
			 0.148260  0.876190  0.458595
			-0.045648  0.790077  0.611306
			 0.060207  0.858013  0.510087
			-0.585312  0.808093  0.066301
			-0.518801  0.815573  0.256292
			-0.402705  0.791340  0.460010
			-0.163493  0.879290  0.447346
			-0.095072  0.885061  0.455662
			 0.943076  0.297406  0.148854
			 0.784520  0.525440  0.329303
			-0.290812  0.809481  0.510068
			-0.379614  0.765580  0.519404
			-0.346712  0.701549  0.622591
			-0.812423  0.581072  0.048206
			-0.820287  0.547457  0.165589
			-0.808558  0.543332  0.225884
			-0.695129  0.696152  0.179355
			 0.945758 -0.299665  0.125473
			 0.950597 -0.143205  0.275423
			 0.568957  0.229421  0.789718
			 0.646544 -0.192049  0.738308
			 0.444395 -0.223421  0.867523
			 0.818408 -0.178868  0.546090
			 0.489985  0.654070  0.576287
			-0.620085 -0.755713 -0.210696
			-0.566641 -0.762571 -0.312096
			-0.499407 -0.770153 -0.396810
			-0.464616 -0.820490 -0.333058
			-0.317063 -0.948194  0.019973
			-0.215847 -0.974551 -0.060496
			-0.474834 -0.860297 -0.185530
			-0.402631 -0.895094  0.191559
			 0.853031 -0.397359  0.338296
			-0.171722 -0.982955  0.065662
			-0.255785 -0.966471  0.022516
			-0.196523 -0.973204  0.119384
			-0.092056 -0.879345  0.467202
			 0.172041 -0.894992  0.411572
			 0.468327 -0.632118  0.617331
			 0.310685 -0.691413  0.652245
			 0.575085 -0.606765  0.548739
			 0.238160 -0.644791  0.726309
			 0.597487 -0.546866  0.586470
			 0.720147 -0.546814  0.427063
			 0.646796 -0.406291  0.645432
			 0.426203  0.093243  0.899809
			 0.618749 -0.657466  0.429987
			-0.890138 -0.387841 -0.239236
			-0.959574 -0.203268 -0.194679
			-0.998830 -0.043604  0.020887
			-0.992730  0.041641  0.112930
			-0.963578  0.130517  0.233416
			-0.964873 -0.215791 -0.149847
			-0.832809 -0.533470 -0.147780
			 0.008430  0.740997  0.671455
			-0.196174  0.477118  0.856665
			-0.234990  0.598204  0.766115
			-0.202454  0.670539  0.713715
			-0.109829  0.445760  0.888390
			-0.135752  0.426395  0.894293
			 0.193333  0.360077  0.912670
			 0.144705  0.583497  0.799119
			 0.076794  0.392491  0.916544
			-0.132047  0.280708  0.950666
			 0.183820  0.293531  0.938110
			 0.796440  0.113527  0.593966
			 0.250973  0.729140  0.636685
			-0.530624  0.696591  0.482908
			-0.719283  0.543376  0.432867
			-0.436944  0.445529  0.781398
			 0.460804  0.679947  0.570379
			-0.279001  0.789827  0.546197
			-0.270010  0.359802  0.893106
			-0.212496  0.167852  0.962638
			-0.252706  0.568893  0.782624
			-0.873995  0.171206  0.454776
			 0.776584 -0.224828  0.588531
			 0.383857  0.440851  0.811360
			 0.349963  0.155235  0.923811
			 0.270266 -0.332821  0.903430
			 0.341419 -0.233041  0.910563
			 0.637361 -0.241080  0.731882
			 0.403915 -0.110313  0.908121
			 0.286038 -0.394003  0.873467
			 0.819394 -0.219890  0.529379
			-0.711610 -0.700409  0.055115
			-0.673813 -0.735954 -0.065946
			-0.686051 -0.712067 -0.149311
			-0.532507 -0.843261 -0.073131