<?xml version="1.0"?>
<VTKFile type="PolyData" version="0.1" byte_order="LittleEndian" compressor="vtkZLibDataCompressor">
	<PolyData>
		<Piece NumberOfPoints="433" NumberOfVerts="0" NumberOfLines="0" NumberOfStrips="0" NumberOfPolys="900">
		<PointData Normals="Normals">
		<DataArray type="Float32" Name="Normals" NumberOfComponents="3" format="ascii">
			 0.316032  0.329528 -0.889682
			 0.589392  0.282270 -0.756928
			 0.461741  0.824744 -0.326484
			 0.017569  0.245225 -0.969307
			 0.054865 -0.579269 -0.813288
			 0.351708 -0.442485 -0.824930
			 0.260288  0.915352 -0.307214
			-0.035966  0.542597 -0.839223
			 0.671697  0.698752 -0.246107
			 0.089417 -0.702303 -0.706240
			-0.096306 -0.574680 -0.812692
			 0.753950 -0.065426 -0.653665
			-0.179368 -0.359215 -0.915856
			 0.530471  0.847209 -0.028931
			-0.042395 -0.770822 -0.635639
			-0.124803 -0.719940 -0.682723
			 0.889455  0.440233 -0.122739
			-0.293049  0.127568 -0.947549
			 0.342232  0.931094  0.126259
			 0.105667  0.931342 -0.348478
			-0.201597  0.811656 -0.548246
			 0.677750  0.735115  0.016172
			 0.020184 -0.833287 -0.552473
			-0.360760 -0.699372 -0.617033
			-0.328088 -0.528192 -0.783180
			 0.031607 -0.730017 -0.682698
			 0.437884 -0.660869 -0.609517
			-0.223030 -0.481476 -0.847607
			 0.892068 -0.223243 -0.392908
			 0.508502  0.829435  0.231222
			 0.381019  0.879335  0.285648
			 0.214628  0.923866  0.316869
			-0.023714  0.999322 -0.028148
			 0.722907  0.657647  0.211911
			-0.091712 -0.768617 -0.633101
			-0.027492 -0.876492 -0.480631
			-0.722571 -0.381945 -0.576202
			-0.342067 -0.628261 -0.698769
			-0.621279 -0.442137 -0.646937
			-0.613356 -0.410921 -0.674492
			 0.907061 -0.255039 -0.334955
			-0.546672  0.154782 -0.822917
			 0.438880  0.763577  0.473639
			 0.066078  0.957728  0.279983
			 0.247118  0.850096  0.465048
			 0.129020  0.906213  0.402656
			-0.246246  0.928715 -0.277221
			-0.435322  0.683838 -0.585542
			-0.561024  0.632532 -0.534000
			 0.899834  0.386063  0.203110
			 0.346318 -0.781017 -0.519688
			 0.009258 -0.814728 -0.579770
			 0.153471 -0.876014 -0.457215
			 0.039675 -0.851415 -0.522991
			-0.140584 -0.788572 -0.598658
			 0.086325 -0.920200 -0.381811
			 0.102679 -0.921996 -0.373338
			 0.215968 -0.914179 -0.342979
			-0.100895 -0.936703 -0.335273
			-0.853549 -0.235965 -0.464517
			-0.406416 -0.604568 -0.685072
			-0.722521 -0.193289 -0.663779
			-0.693219 -0.026147 -0.720252
			 0.486450  0.617442  0.618168
			 0.603326  0.624310  0.496219
			 0.054238  0.982927  0.175820
			 0.148524  0.790829  0.593743
			 0.027158  0.903100  0.428570
			-0.479494  0.762825 -0.433802
			-0.816797  0.091432 -0.569633
			 0.897655  0.169535  0.406785
			 0.952981 -0.275218 -0.126815
			 0.133753 -0.892294 -0.431185
			-0.165383 -0.790763 -0.589358
			-0.036690 -0.851511 -0.523051
			 0.139866 -0.947080 -0.288923
			 0.264698 -0.912622 -0.311540
			 0.337525 -0.911979 -0.233178
			 0.300805 -0.908683 -0.289504
			 0.072155 -0.977180 -0.199782
			-0.525993 -0.473012 -0.706818
			-0.523265 -0.477335 -0.705936
			-0.319837 -0.698019 -0.640682
			-0.661191 -0.244528 -0.709248
			-0.826324 -0.131597 -0.547605
			-0.820740  0.039117 -0.569961
			-0.820331 -0.004018 -0.571875
			 0.633445  0.477943  0.608537
			-0.146814  0.987449 -0.058215
			 0.256421  0.734042  0.628833
			 0.283950  0.663844  0.691870
			 0.142765  0.735897  0.661871
			-0.365106  0.854499  0.369498
			 0.006916  0.729127  0.684343
			-0.611132  0.637819 -0.468727
			-0.794225  0.281993 -0.538225
			 0.908301 -0.265241  0.323476
			 0.887486  0.005990  0.460797
			 0.852455 -0.521520  0.036576
			 0.555157 -0.808952 -0.193383
			 0.051334 -0.882912 -0.466723
			-0.123200 -0.813916 -0.567770
			 0.518440 -0.854180  0.039960
			 0.333955 -0.938029 -0.092605
			 0.540635 -0.824714  0.166016
			 0.513202 -0.858187 -0.011779
			 0.326855 -0.943649 -0.051883
			-0.766572 -0.182097 -0.615799
			-0.894528 -0.060464 -0.442903
			-0.854299  0.073339 -0.514583
			-0.330415 -0.690201 -0.643777
			-0.362692 -0.657630 -0.660285
			-0.217172 -0.775704 -0.592553
			-0.797820  0.206486 -0.566433
			-0.806430  0.541233 -0.238195
			 0.541310  0.534107  0.649395
			 0.746175  0.320428  0.583565
			 0.101538  0.687519  0.719032
			 0.117922  0.649637  0.751043
			 0.110732  0.684622  0.720438
			-0.463062  0.664715  0.586283
			-0.047811 -0.838272 -0.543152
			 0.325262 -0.902194 -0.283287
			-0.230387 -0.778800 -0.583432
			 0.793595 -0.549228  0.261830
			 0.676804 -0.471681  0.565202
			 0.726485 -0.585427  0.359854
			-0.392712 -0.600790 -0.696296
			-0.748118  0.115737 -0.653394
			-0.562516 -0.393670 -0.727049
			-0.195776 -0.720304 -0.665458
			-0.886027 -0.027360 -0.462826
			-0.895186  0.417389  0.156297
			 0.760493 -0.007538  0.649303
			 0.493881  0.519118  0.697566
			 0.066763  0.755962  0.651202
			 0.287081  0.592285  0.752850
			 0.419642  0.487098  0.765922
			 0.233843  0.487920  0.840982
			-0.226111  0.674141  0.703142
			-0.543282  0.836249 -0.074377
			-0.872302  0.483724 -0.071416
			-0.809805  0.277966 -0.516673
			 0.844498 -0.399038  0.357199
			 0.648309 -0.759940  0.046753
			 0.544650 -0.820078  0.175579
			 0.563028 -0.393701  0.726635
			 0.598833 -0.547647  0.584364
			 0.570657 -0.270292  0.775431
			 0.658640 -0.013455  0.752338
			 0.770575 -0.301546  0.561502
			-0.871339  0.240617 -0.427636
			-0.538721 -0.342330 -0.769799
			-0.323326 -0.573186 -0.752940
			-0.714032  0.152474 -0.683308
			 0.069623 -0.820594 -0.567255
			-0.184979 -0.627857 -0.756028
			-0.502139  0.855776 -0.124511
			-0.977509  0.126136 -0.169017
			-0.602045  0.753172  0.265092
			 0.513446  0.176436  0.839788
			 0.327755  0.742104  0.584687
			-0.222839  0.928145  0.298145
			-0.377437  0.695944  0.610904
			 0.453331  0.105515  0.885075
			-0.711119  0.698300 -0.081771
			-0.859827  0.391476  0.327787
			 0.422720 -0.860157 -0.285373
			 0.841554 -0.281152  0.461238
			 0.773995 -0.632957 -0.017222
			 0.635068 -0.696824  0.333353
			-0.658172  0.140220 -0.739694
			-0.522314 -0.087003 -0.848304
			-0.434352 -0.374319 -0.819283
			-0.308454 -0.466207 -0.829160
			-0.774156  0.452428 -0.442709
			-0.693041  0.047014 -0.719363
			 0.053069 -0.680680 -0.730656
			 0.177829 -0.823573 -0.538614
			-0.118683 -0.471208 -0.874001
			-0.553973  0.804403 -0.214591
			-0.527782  0.849354  0.006648
			 0.369239  0.683145  0.630060
			 0.189508  0.861195  0.471625
			-0.092501  0.970241  0.223775
			 0.353272  0.169163  0.920099
			 0.241208  0.379621  0.893144
			 0.310291 -0.808260 -0.500435
			 0.886146 -0.199327  0.418348
			 0.803724 -0.585013  0.108570
			 0.803568 -0.587788 -0.093723
			 0.470420  0.206530  0.857934
			 0.735890  0.098203  0.669942
			-0.293338 -0.269986 -0.917093
			-0.497242  0.208402 -0.842211
			-0.634965  0.433453 -0.639483
			-0.369899 -0.016579 -0.928924
			-0.167254 -0.384179 -0.907983
			-0.722886  0.488149 -0.489026
			-0.074113 -0.373540 -0.924649
			-0.009293 -0.394876 -0.918687
			 0.096588 -0.524811 -0.845721
			-0.047727 -0.566320 -0.822802
			-0.615162  0.675377 -0.406745
			 0.559019  0.516523  0.648615
			 0.087590  0.935406  0.342556
			 0.125021  0.919979  0.371495
			 0.332325  0.823367  0.460029
			-0.042427  0.965347  0.257497
			 0.477075 -0.813970 -0.331440
			 0.558802 -0.680614 -0.473819
			 0.312125 -0.712592 -0.628324
			 0.750296  0.192762  0.632376
			 0.938051 -0.231865  0.257485
			 0.827193  0.209539  0.521388
			 0.858875 -0.424810 -0.286130
			 0.684019  0.337294  0.646801
			-0.199987 -0.202539 -0.958636
			-0.240777 -0.120814 -0.963032
			-0.499803  0.587217 -0.636690
			-0.324884  0.310735 -0.893249
			-0.199000  0.341093 -0.918724
			-0.179209 -0.357612 -0.916514
			 0.302800 -0.650429 -0.696602
			-0.153582 -0.404816 -0.901408
			-0.054532 -0.580456 -0.812463
			 0.191656 -0.563302 -0.803716
			 0.107775 -0.666486 -0.737687
			-0.153521 -0.770510 -0.618664
			-0.560394  0.790509 -0.247092
			 0.729079  0.356380  0.584326
			 0.651983  0.497361  0.572319
			 0.282226  0.846652  0.451142
			-0.037209  0.911523  0.409563
			-0.097786  0.961885  0.255371
			 0.608111  0.608577  0.509741
			 0.448532 -0.735766 -0.507412
			 0.406443 -0.640497 -0.651589
			 0.989597 -0.103877  0.099534
			-0.433469  0.889122 -0.146856
			-0.264395 -0.217481 -0.939573
			-0.337587 -0.272847 -0.900883
			-0.393444 -0.042272 -0.918376
			-0.247834 -0.001149 -0.968802
			-0.299939  0.785284 -0.541632
			-0.550400 -0.308980 -0.775623
			 0.348010 -0.636234 -0.688546
			-0.354696 -0.486011 -0.798740
			-0.352904 -0.395774 -0.847834
			-0.305344 -0.661218 -0.685242
			-0.183138 -0.834914 -0.519017
			 0.281653 -0.778239 -0.561263
			-0.206421 -0.802254 -0.560160
			-0.225000 -0.875428 -0.427786
			-0.347908  0.937515 -0.005136
			 0.031010  0.926216  0.375716
			 0.043205  0.894154  0.445669
			 0.222570  0.800386  0.556638
			-0.064229  0.963587  0.259568
			 0.441440  0.739211  0.508624
			 0.700102 -0.365805 -0.613225
			 0.387131 -0.684486 -0.617745
			 0.609202 -0.623525 -0.489989
			 0.523376 -0.620579 -0.583917
			 0.361042 -0.789903 -0.495683
			 0.372239 -0.750105 -0.546608
			 0.926101 -0.303520 -0.224080
			 0.886747  0.291433  0.358813
			 0.974144  0.180172  0.136311
			-0.285360  0.934754 -0.211671
			-0.374047  0.622410 -0.687528
			-0.691722 -0.227828 -0.685285
			-0.528479  0.142132 -0.836964
			-0.118529  0.887567 -0.445169
			-0.582975 -0.542732 -0.604634
			-0.668673 -0.368846 -0.645623
			-0.483629 -0.721729 -0.495187
			 0.096361 -0.845056 -0.525923
			-0.018852 -0.949480 -0.313262
			-0.283998 -0.915300 -0.285606
			-0.442093 -0.862250 -0.247141
			-0.035872  0.980512  0.193158
			 0.101207  0.913129  0.394907
			 0.135225  0.829193  0.542359
			-0.093104  0.874688  0.475660
			-0.049896  0.885943  0.461102
			 0.721452  0.536322  0.438025
			 0.791897 -0.514932 -0.328246
			 0.562537 -0.618363 -0.548798
			 0.431864 -0.836223 -0.337971
			 0.372015 -0.916700 -0.145827
			 0.956262  0.045858 -0.288896
			 0.893522  0.407276  0.189062
			-0.627396 -0.302435 -0.717571
			-0.732425 -0.313659 -0.604294
			-0.651233  0.497297 -0.573229
			-0.117477  0.988838 -0.091650
			-0.085037  0.940518 -0.328929
			-0.775657 -0.324609 -0.541281
			-0.878119 -0.409338 -0.247687
			-0.964172 -0.208166  0.164438
			 0.199591 -0.960817 -0.192336
			-0.249300 -0.967886  0.032352
			 0.042827  0.969849  0.239914
			 0.186362  0.898785  0.396805
			 0.142752  0.786536  0.600818
			 0.048450  0.848466  0.527027
			 0.482820  0.689801  0.539499
			 0.300672  0.810219  0.503131
			 0.135381  0.816619  0.561075
			 0.687480  0.556296  0.466805
			 0.998861  0.024553  0.040915
			 0.896442  0.388227 -0.213709
			 0.742012 -0.665458 -0.081140
			 0.560739 -0.771406 -0.300840
			 0.511697 -0.855460  0.079711
			 0.097684 -0.943697  0.316059
			 0.584831  0.528874  0.615033
			 0.752677  0.533276  0.386127
			-0.846889 -0.293901 -0.443172
			-0.913967 -0.054575 -0.402101
			-0.782249  0.111768 -0.612857
			-0.996162 -0.087471  0.003305
			-0.906472  0.230064 -0.354089
			 0.016997  0.997197  0.072866
			-0.171114  0.976870 -0.128238
			-0.575115  0.818051 -0.005888
			-0.790023 -0.611050 -0.049805
			-0.834153 -0.117090  0.538961
			-0.354436 -0.799441  0.485045
			-0.354140 -0.781025  0.514378
			-0.564296 -0.346316  0.749423
			 0.028860  0.977871  0.207211
			 0.116848  0.818432  0.562597
			 0.213298  0.942551  0.257104
			 0.052796  0.758167  0.649920
			 0.062192  0.661397  0.747453
			 0.028111  0.745928  0.665432
			 0.166363  0.715379  0.678643
			 0.483600  0.721077  0.496165
			 0.474291  0.599240  0.644949
			 0.867160 -0.317178  0.383968
			 0.569067 -0.818878  0.074844
			 0.163982 -0.750884  0.639753
			-0.045407 -0.589185  0.806721
			-0.083735 -0.848316  0.522827
			-0.973559 -0.196247 -0.116920
			-0.914168  0.401630  0.054678
			-0.994268  0.051225 -0.093849
			-0.120340  0.976073 -0.181106
			 0.014027  0.992523  0.121250
			-0.255577  0.948398  0.187675
			-0.217059 -0.344374  0.913396
			-0.146487  0.655766  0.740616
			 0.207180  0.924281  0.320595
			-0.127232  0.695545  0.707128
			-0.213754  0.647573  0.731409
			 0.010409  0.625078  0.780493
			 0.105792  0.580904  0.807068
			 0.382451  0.752409  0.536295
			 0.070468  0.579144  0.812174
			 0.302495  0.481957  0.822322
			 0.710902 -0.515622  0.478281
			 0.567756  0.267399  0.778557
			 0.282511  0.301791  0.910555
			 0.360929  0.449325  0.817213
			-0.725033 -0.122113  0.677802
			-0.973597 -0.005838  0.228199
			-0.852285  0.361189  0.378356
			-0.128983  0.908234  0.398090
			-0.631727  0.703036  0.326589
			-0.632412 -0.064544  0.771939
			-0.416643  0.190766  0.888829
			-0.540531 -0.086698  0.836845
			-0.500439  0.117305  0.857788
			-0.211719 -0.099299  0.972273
			-0.259943  0.791360  0.553335
			-0.316450  0.543792  0.777271
			-0.372786  0.571890  0.730734
			-0.596579  0.300142  0.744317
			-0.739366 -0.213664  0.638503
			-0.342451  0.323881  0.881946
			-0.703697  0.077100  0.706305
			-0.257607  0.084550  0.962543
			-0.099054 -0.146580  0.984227
			 0.157019  0.352123  0.922689
			 0.792879  0.134920  0.594256
			 0.697415 -0.138512  0.703155
			 0.459233 -0.516032  0.723060
			 0.321124 -0.750396  0.577742
			-0.187849 -0.228382  0.955277
			-0.803846  0.164883  0.571529
			-0.706522 -0.173740  0.686033
			-0.415157  0.741371  0.527270
			-0.408794  0.090887  0.908090
			-0.266728  0.158395  0.950667
			-0.308786  0.185663  0.932835
			-0.525493 -0.099745  0.844931
			-0.142976 -0.184839  0.972313
			-0.482817  0.390933  0.783619
			-0.653184  0.325872  0.683490
			-0.374878 -0.399670  0.836499
			 0.166863 -0.048731  0.984775
			 0.202877  0.229006  0.952049
			 0.479168 -0.058746  0.875755
			 0.100386 -0.519197  0.848738
			-0.318522 -0.382122  0.867483
			-0.363182 -0.120283  0.923921
			-0.377905 -0.097127  0.920736
			 0.332036  0.139067  0.932959
			 0.132469  0.073361  0.988469
			 0.181390  0.014462  0.983305
			-0.697685 -0.188047  0.691285
			-0.557854 -0.396024  0.729359
			-0.268873 -0.012930  0.963089
			-0.584043 -0.531335  0.613659
			-0.794152 -0.399669  0.457807
			-0.638512 -0.639887  0.427606
			-0.479063 -0.451348  0.752850
			-0.142146 -0.696723  0.703116
			 0.105165 -0.250744  0.962324
			 0.205846 -0.272856  0.939775
			-0.455934 -0.406496  0.791761
			-0.321041 -0.395011  0.860755
			-0.099894 -0.296605  0.949762
			-0.692610 -0.541156  0.476908
			-0.408536 -0.442130  0.798511
			-0.410833 -0.768223  0.490967
			-0.298816 -0.814407  0.497444
			-0.183958 -0.628946  0.755371
			-0.313750 -0.446529  0.837958
			-0.215649 -0.430806  0.876300
			-0.384017 -0.800654  0.459874
		</DataArray>
	</PointData>
	<Points>
		<DataArray type="Float32" NumberOfComponents="3" format="ascii">
			 0.020531 -0.070267 -0.059896
			 0.020986 -0.070340 -0.059697
			 0.020515 -0.069925 -0.059401
			 0.020038 -0.070169 -0.059973
			 0.020426 -0.070905 -0.059844
			 0.020980 -0.070884 -0.059746
			 0.020015 -0.069667 -0.059248
			 0.019488 -0.070128 -0.059890
			 0.021058 -0.070295 -0.059136
			 0.020587 -0.071351 -0.059475
			 0.019949 -0.071121 -0.059713
			 0.021426 -0.070928 -0.059489
			 0.019476 -0.070633 -0.059979
			 0.020839 -0.069944 -0.058831
			 0.020042 -0.071849 -0.058898
			 0.019221 -0.071505 -0.059232
			 0.021661 -0.070614 -0.058937
			 0.018959 -0.070458 -0.059899
			 0.019973 -0.069542 -0.058318
			 0.019690 -0.069405 -0.058824
			 0.019208 -0.069784 -0.059565
			 0.021378 -0.070317 -0.058560
			 0.019715 -0.072098 -0.058486
			 0.017970 -0.071806 -0.058394
			 0.018416 -0.071060 -0.059465
			 0.020719 -0.071753 -0.058979
			 0.021241 -0.071557 -0.059095
			 0.018878 -0.070936 -0.059688
			 0.021696 -0.071123 -0.059032
			 0.020979 -0.070097 -0.058022
			 0.019943 -0.069685 -0.057775
			 0.019422 -0.069522 -0.057702
			 0.019006 -0.069304 -0.058461
			 0.021587 -0.070601 -0.057995
			 0.018851 -0.072355 -0.058192
			 0.020152 -0.072461 -0.057968
			 0.017350 -0.071322 -0.058451
			 0.017272 -0.072799 -0.057184
			 0.017305 -0.071805 -0.057930
			 0.017710 -0.071302 -0.058845
			 0.021759 -0.071502 -0.058646
			 0.018299 -0.070397 -0.059646
			 0.020515 -0.070190 -0.057087
			 0.018669 -0.069403 -0.057825
			 0.019640 -0.069761 -0.057186
			 0.019073 -0.069690 -0.057131
			 0.018354 -0.069436 -0.058485
			 0.018530 -0.069808 -0.059384
			 0.017847 -0.069860 -0.058859
			 0.021771 -0.070962 -0.057655
			 0.021294 -0.072227 -0.058260
			 0.020794 -0.072396 -0.058105
			 0.018964 -0.072947 -0.057243
			 0.018283 -0.073075 -0.057194
			 0.017820 -0.073198 -0.056969
			 0.019467 -0.072778 -0.057397
			 0.020773 -0.072685 -0.057684
			 0.019219 -0.073096 -0.056691
			 0.020111 -0.072684 -0.057507
			 0.017069 -0.071371 -0.058021
			 0.016707 -0.073240 -0.056487
			 0.016463 -0.072078 -0.057040
			 0.017867 -0.070368 -0.059287
			 0.020469 -0.070443 -0.056654
			 0.021265 -0.070578 -0.057320
			 0.018191 -0.069463 -0.057481
			 0.019007 -0.069954 -0.056667
			 0.017529 -0.069584 -0.056800
			 0.017504 -0.069608 -0.058109
			 0.017493 -0.070358 -0.058877
			 0.021700 -0.071374 -0.057204
			 0.021899 -0.071523 -0.058030
			 0.017687 -0.073931 -0.055645
			 0.017329 -0.073307 -0.056660
			 0.017075 -0.074035 -0.055520
			 0.019752 -0.072959 -0.056645
			 0.019105 -0.073363 -0.056120
			 0.018497 -0.073930 -0.055018
			 0.017588 -0.074363 -0.054665
			 0.020296 -0.072878 -0.056856
			 0.016064 -0.073121 -0.056194
			 0.015108 -0.073515 -0.055207
			 0.016058 -0.073864 -0.055467
			 0.015433 -0.072910 -0.055806
			 0.016651 -0.071186 -0.057496
			 0.016040 -0.071941 -0.056558
			 0.016172 -0.071490 -0.056752
			 0.021280 -0.071122 -0.056748
			 0.017628 -0.069389 -0.057430
			 0.020024 -0.070448 -0.056314
			 0.019451 -0.071199 -0.055345
			 0.018291 -0.070264 -0.056115
			 0.017065 -0.069714 -0.056581
			 0.017222 -0.070066 -0.056078
			 0.017132 -0.069554 -0.057767
			 0.017138 -0.070206 -0.058331
			 0.021643 -0.071864 -0.056986
			 0.021411 -0.071938 -0.056541
			 0.021827 -0.071927 -0.057587
			 0.021351 -0.072523 -0.057786
			 0.016154 -0.075105 -0.053720
			 0.016609 -0.074151 -0.055291
			 0.020925 -0.072854 -0.057025
			 0.019543 -0.073353 -0.055772
			 0.019046 -0.073653 -0.055042
			 0.018054 -0.074252 -0.054264
			 0.020290 -0.073032 -0.056379
			 0.017332 -0.070914 -0.058798
			 0.016992 -0.070811 -0.058283
			 0.016796 -0.070606 -0.057830
			 0.014478 -0.074595 -0.053881
			 0.015113 -0.074109 -0.054679
			 0.015836 -0.074421 -0.054746
			 0.015012 -0.072835 -0.055377
			 0.015425 -0.072011 -0.055717
			 0.020788 -0.071135 -0.056309
			 0.020986 -0.071751 -0.056016
			 0.018117 -0.071264 -0.055056
			 0.018726 -0.071562 -0.054845
			 0.017505 -0.070975 -0.055274
			 0.016535 -0.070228 -0.056062
			 0.015437 -0.075416 -0.053169
			 0.016587 -0.075130 -0.053407
			 0.015330 -0.074781 -0.054073
			 0.020923 -0.072723 -0.056225
			 0.018569 -0.073835 -0.054196
			 0.017864 -0.074349 -0.053805
			 0.013980 -0.074671 -0.053513
			 0.014485 -0.073260 -0.054778
			 0.014154 -0.073903 -0.054217
			 0.014769 -0.075453 -0.053026
			 0.016262 -0.071017 -0.056960
			 0.015920 -0.071229 -0.056032
			 0.020613 -0.072163 -0.055288
			 0.020080 -0.071611 -0.055331
			 0.016987 -0.071415 -0.054680
			 0.018190 -0.072111 -0.054357
			 0.019525 -0.072047 -0.054649
			 0.019066 -0.072149 -0.054405
			 0.016894 -0.070686 -0.055495
			 0.016971 -0.069503 -0.057159
			 0.016464 -0.069954 -0.056567
			 0.016749 -0.069875 -0.057654
			 0.021037 -0.072296 -0.055765
			 0.016707 -0.075176 -0.052666
			 0.020694 -0.072799 -0.055780
			 0.019371 -0.073296 -0.054638
			 0.019961 -0.073070 -0.055012
			 0.018945 -0.073514 -0.054310
			 0.018245 -0.073864 -0.053780
			 0.017622 -0.074417 -0.053365
			 0.016304 -0.070356 -0.057040
			 0.013192 -0.074345 -0.053278
			 0.013605 -0.075122 -0.052950
			 0.013832 -0.073487 -0.054105
			 0.014456 -0.075976 -0.052346
			 0.013125 -0.076024 -0.052041
			 0.015290 -0.071812 -0.054959
			 0.016102 -0.070447 -0.056588
			 0.015829 -0.071377 -0.055542
			 0.019904 -0.072426 -0.054687
			 0.017341 -0.071911 -0.054151
			 0.016241 -0.071461 -0.054609
			 0.016406 -0.070975 -0.055434
			 0.019452 -0.072482 -0.054398
			 0.016531 -0.069794 -0.057063
			 0.016062 -0.070621 -0.056082
			 0.015705 -0.075889 -0.051995
			 0.017090 -0.074693 -0.052639
			 0.016055 -0.075746 -0.051601
			 0.020452 -0.072868 -0.055338
			 0.012819 -0.073871 -0.053153
			 0.011927 -0.073953 -0.052537
			 0.012412 -0.074535 -0.052671
			 0.012334 -0.075480 -0.052176
			 0.014617 -0.072662 -0.054844
			 0.013415 -0.073466 -0.053719
			 0.013463 -0.076620 -0.051610
			 0.014614 -0.076327 -0.051843
			 0.011851 -0.076346 -0.051567
			 0.015008 -0.071860 -0.054531
			 0.015712 -0.071512 -0.055060
			 0.017483 -0.072360 -0.053745
			 0.016236 -0.071902 -0.053621
			 0.015549 -0.071596 -0.054308
			 0.018988 -0.072606 -0.054173
			 0.018516 -0.072792 -0.054012
			 0.014706 -0.076603 -0.051324
			 0.016853 -0.074765 -0.052196
			 0.016403 -0.075407 -0.051727
			 0.015986 -0.075905 -0.051104
			 0.018359 -0.073242 -0.053838
			 0.017712 -0.073627 -0.053296
			 0.011568 -0.074777 -0.052154
			 0.012000 -0.073357 -0.052571
			 0.012937 -0.073251 -0.053210
			 0.011344 -0.073771 -0.052296
			 0.011393 -0.075364 -0.051874
			 0.014354 -0.072559 -0.054267
			 0.011127 -0.076090 -0.051574
			 0.011442 -0.076845 -0.051302
			 0.012821 -0.077315 -0.051077
			 0.011893 -0.078080 -0.050650
			 0.014642 -0.072076 -0.054218
			 0.017186 -0.072567 -0.053344
			 0.015086 -0.072009 -0.053139
			 0.014731 -0.072330 -0.052093
			 0.016146 -0.072400 -0.052746
			 0.015191 -0.071771 -0.053728
			 0.015268 -0.076336 -0.051345
			 0.015446 -0.076553 -0.050709
			 0.014160 -0.077021 -0.051070
			 0.017145 -0.073878 -0.052574
			 0.016651 -0.074855 -0.051741
			 0.016862 -0.073926 -0.052146
			 0.015960 -0.076087 -0.050593
			 0.017205 -0.073390 -0.052791
			 0.010909 -0.074755 -0.051955
			 0.010811 -0.074019 -0.052080
			 0.012590 -0.072999 -0.052771
			 0.011461 -0.073231 -0.052268
			 0.010738 -0.073118 -0.052040
			 0.010448 -0.076201 -0.051507
			 0.013699 -0.077268 -0.051015
			 0.010943 -0.077106 -0.051181
			 0.011284 -0.077784 -0.050865
			 0.012569 -0.077991 -0.050740
			 0.012496 -0.078423 -0.050486
			 0.011419 -0.078280 -0.050502
			 0.014023 -0.072257 -0.053571
			 0.016879 -0.073416 -0.052376
			 0.016722 -0.072834 -0.052643
			 0.015160 -0.072667 -0.051523
			 0.014309 -0.072751 -0.051027
			 0.014453 -0.071995 -0.053012
			 0.015960 -0.072948 -0.051722
			 0.014953 -0.076869 -0.050676
			 0.014115 -0.077616 -0.050431
			 0.016346 -0.075086 -0.050801
			 0.013705 -0.072287 -0.053155
			 0.010194 -0.074869 -0.051810
			 0.010260 -0.075630 -0.051646
			 0.009898 -0.074435 -0.051888
			 0.010267 -0.073858 -0.051957
			 0.011929 -0.072793 -0.052213
			 0.009980 -0.076358 -0.051316
			 0.013321 -0.077799 -0.050681
			 0.010484 -0.077302 -0.051062
			 0.010368 -0.076681 -0.051298
			 0.010811 -0.077971 -0.050704
			 0.012027 -0.078592 -0.050307
			 0.013122 -0.078613 -0.050167
			 0.010957 -0.078400 -0.050276
			 0.011568 -0.078684 -0.050051
			 0.014579 -0.071864 -0.053490
			 0.013989 -0.072409 -0.051840
			 0.013635 -0.072830 -0.050928
			 0.014678 -0.073148 -0.050399
			 0.014065 -0.072196 -0.052395
			 0.015189 -0.073068 -0.050793
			 0.016289 -0.076380 -0.049733
			 0.014525 -0.077938 -0.049871
			 0.015625 -0.076783 -0.050093
			 0.015047 -0.077593 -0.049857
			 0.014047 -0.078324 -0.049890
			 0.013553 -0.078648 -0.049863
			 0.016229 -0.075596 -0.050549
			 0.016409 -0.074215 -0.051111
			 0.016206 -0.074884 -0.050044
			 0.013154 -0.072403 -0.052593
			 0.010174 -0.072989 -0.051916
			 0.009644 -0.074883 -0.051669
			 0.009777 -0.073594 -0.051819
			 0.011241 -0.072649 -0.051894
			 0.010025 -0.077399 -0.050813
			 0.009907 -0.076788 -0.051059
			 0.010354 -0.078058 -0.050443
			 0.012645 -0.078833 -0.050040
			 0.012217 -0.078978 -0.049806
			 0.011119 -0.078722 -0.049743
			 0.010508 -0.078436 -0.049967
			 0.013324 -0.072316 -0.052098
			 0.013282 -0.072490 -0.051592
			 0.013178 -0.072912 -0.050663
			 0.014006 -0.073211 -0.050286
			 0.013544 -0.073331 -0.050057
			 0.015860 -0.073666 -0.050627
			 0.016409 -0.076834 -0.049281
			 0.015542 -0.077541 -0.049585
			 0.014560 -0.078313 -0.049483
			 0.013733 -0.078860 -0.049223
			 0.016314 -0.075541 -0.050000
			 0.016206 -0.075242 -0.049353
			 0.009541 -0.075349 -0.051466
			 0.009606 -0.075952 -0.051252
			 0.009682 -0.073133 -0.051651
			 0.012278 -0.072466 -0.052013
			 0.010560 -0.072677 -0.051709
			 0.009585 -0.076411 -0.050979
			 0.009578 -0.077310 -0.050339
			 0.009330 -0.076705 -0.050297
			 0.013035 -0.078932 -0.049730
			 0.011925 -0.079049 -0.049353
			 0.012839 -0.072370 -0.051832
			 0.011948 -0.072783 -0.050351
			 0.012623 -0.073548 -0.049580
			 0.013500 -0.073570 -0.049611
			 0.015608 -0.074102 -0.049796
			 0.014772 -0.073865 -0.049575
			 0.014116 -0.073830 -0.049364
			 0.016019 -0.074436 -0.049849
			 0.016716 -0.076309 -0.049281
			 0.016521 -0.075920 -0.049647
			 0.016046 -0.077406 -0.049219
			 0.015237 -0.077982 -0.049362
			 0.014554 -0.078504 -0.048967
			 0.013275 -0.079041 -0.049044
			 0.015856 -0.075252 -0.048571
			 0.016381 -0.075648 -0.048965
			 0.009232 -0.075415 -0.051013
			 0.009154 -0.074670 -0.051171
			 0.009487 -0.074015 -0.051720
			 0.009035 -0.075356 -0.050483
			 0.009316 -0.073546 -0.051444
			 0.011550 -0.072467 -0.051533
			 0.010134 -0.072608 -0.051372
			 0.009685 -0.072766 -0.051168
			 0.009914 -0.077987 -0.050014
			 0.009601 -0.077490 -0.049842
			 0.011449 -0.078900 -0.049401
			 0.010897 -0.078699 -0.049207
			 0.010408 -0.078547 -0.049222
			 0.012335 -0.072434 -0.051435
			 0.011419 -0.072855 -0.049906
			 0.011702 -0.072568 -0.050835
			 0.012309 -0.074078 -0.048907
			 0.011493 -0.073702 -0.049210
			 0.013605 -0.074217 -0.048717
			 0.014330 -0.074378 -0.048585
			 0.015400 -0.074530 -0.048983
			 0.015471 -0.074917 -0.048575
			 0.016482 -0.076827 -0.048772
			 0.015560 -0.077826 -0.048975
			 0.014333 -0.078584 -0.048519
			 0.013778 -0.078887 -0.048697
			 0.012683 -0.079104 -0.049155
			 0.009233 -0.076101 -0.050601
			 0.009089 -0.073622 -0.050999
			 0.009008 -0.074119 -0.050767
			 0.010725 -0.072552 -0.051254
			 0.011167 -0.072469 -0.050816
			 0.010235 -0.072563 -0.050817
			 0.012046 -0.078962 -0.048847
			 0.010956 -0.072981 -0.049686
			 0.011460 -0.072629 -0.050367
			 0.010965 -0.074206 -0.048679
			 0.010785 -0.073501 -0.049326
			 0.012143 -0.075025 -0.047795
			 0.013216 -0.075194 -0.047803
			 0.014885 -0.074461 -0.048630
			 0.014253 -0.074723 -0.048204
			 0.015025 -0.074928 -0.048240
			 0.015904 -0.077518 -0.048441
			 0.016170 -0.076007 -0.048296
			 0.015533 -0.075833 -0.047949
			 0.015402 -0.075260 -0.048211
			 0.009217 -0.075723 -0.050057
			 0.008993 -0.074819 -0.050337
			 0.009101 -0.073662 -0.050333
			 0.010910 -0.072559 -0.050350
			 0.009579 -0.072871 -0.050653
			 0.009954 -0.077971 -0.049415
			 0.009981 -0.077408 -0.049391
			 0.009470 -0.076194 -0.049931
			 0.009808 -0.076869 -0.049607
			 0.011419 -0.078534 -0.048842
			 0.010474 -0.072932 -0.049856
			 0.010110 -0.073375 -0.049617
			 0.010339 -0.073735 -0.049289
			 0.010490 -0.074411 -0.048537
			 0.010526 -0.074823 -0.048182
			 0.011088 -0.074953 -0.047860
			 0.010091 -0.074356 -0.048888
			 0.011673 -0.075193 -0.047618
			 0.012484 -0.075606 -0.047352
			 0.013817 -0.075549 -0.047649
			 0.016597 -0.076116 -0.048750
			 0.016232 -0.076845 -0.048290
			 0.015544 -0.077526 -0.048037
			 0.014865 -0.078179 -0.048444
			 0.013135 -0.078881 -0.048556
			 0.009089 -0.074345 -0.049921
			 0.009194 -0.075073 -0.049801
			 0.010041 -0.072786 -0.050224
			 0.010738 -0.076977 -0.049204
			 0.010885 -0.078025 -0.048945
			 0.010639 -0.077576 -0.049114
			 0.010436 -0.076143 -0.049401
			 0.012439 -0.078656 -0.048666
			 0.009418 -0.073671 -0.049771
			 0.009761 -0.074213 -0.049276
			 0.011954 -0.075561 -0.047417
			 0.013350 -0.075703 -0.047456
			 0.014679 -0.075671 -0.047778
			 0.015802 -0.076831 -0.047893
			 0.014979 -0.077751 -0.047984
			 0.014289 -0.078075 -0.048109
			 0.013891 -0.078399 -0.048300
			 0.013650 -0.077918 -0.048441
			 0.015411 -0.076289 -0.047752
			 0.014330 -0.076161 -0.047639
			 0.014920 -0.076621 -0.047602
			 0.009534 -0.074668 -0.049369
			 0.009810 -0.075249 -0.049444
			 0.011374 -0.077215 -0.048975
			 0.011062 -0.076256 -0.048979
			 0.010230 -0.074925 -0.048632
			 0.010818 -0.075403 -0.047948
			 0.011206 -0.075497 -0.047624
			 0.012769 -0.076107 -0.047339
			 0.013730 -0.076071 -0.047482
			 0.015221 -0.077181 -0.047703
			 0.013831 -0.077372 -0.048122
			 0.012421 -0.077171 -0.048636
			 0.014479 -0.076886 -0.047615
			 0.010217 -0.075327 -0.049141
			 0.012046 -0.076805 -0.048624
			 0.011575 -0.075868 -0.047630
			 0.012250 -0.076125 -0.047513
			 0.013279 -0.076357 -0.047504
			 0.014249 -0.077440 -0.047832
			 0.013956 -0.076873 -0.047739
			 0.011666 -0.076312 -0.048432
		</DataArray>
	</Points>
			<Polys>