<?xml version="1.0"?>
<VTKFile type="PolyData" version="0.1" byte_order="LittleEndian" compressor="vtkZLibDataCompressor">
	<PolyData>
		<Piece NumberOfPoints="776" NumberOfVerts="0" NumberOfLines="0" NumberOfStrips="0" NumberOfPolys="1564">
		<PointData Normals="Normals">
		<DataArray type="Float32" Name="Normals" NumberOfComponents="3" format="ascii">
			 0.216178  0.924951  0.312621
			 0.159308  0.941121  0.298182
			 0.202290  0.936326  0.287006
			 0.065748  0.941354  0.330954
			 0.116284  0.937522  0.327920
			 0.256507  0.896150  0.362104
			 0.178418  0.949414  0.258419
			 0.066142  0.968379  0.240558
			 0.035799  0.953980  0.297726
			 0.059664  0.955063  0.290336
			 0.240960  0.907983  0.342790
			 0.232245  0.946432  0.224339
			 0.186501  0.959166  0.212644
			 0.133477  0.948726  0.286536
			 0.154853  0.912023  0.379782
			-0.029218  0.949545  0.312268
			 0.135845  0.924325  0.356609
			-0.124779  0.961825  0.243562
			 0.030980  0.941407  0.335848
			 0.027354  0.933557  0.357384
			 0.130869  0.969643  0.206559
			 0.040509  0.982513  0.181735
			-0.054105  0.979790  0.192571
			 0.367799  0.856354  0.362466
			 0.296337  0.881301  0.368094
			 0.168898  0.959166  0.226879
			 0.171267  0.967482  0.186134
			 0.309790  0.926130  0.215204
			 0.367165  0.881455  0.297032
			 0.117747  0.925273  0.360562
			 0.273961  0.863944  0.422548
			 0.075939  0.949582  0.304183
			 0.225733  0.923688  0.309588
			 0.029971  0.941498  0.335683
			 0.113165  0.933222  0.341014
			 0.287686  0.892284  0.347944
			-0.193953  0.950172  0.244039
			-0.118316  0.963122  0.241657
			-0.192718  0.963126  0.187746
			-0.226944  0.943477  0.241553
			-0.192830  0.925822  0.325071
			 0.027781  0.927505  0.372776
			 0.223901  0.878876  0.421242
			-0.219874  0.948075  0.229804
			-0.343349  0.900888  0.265540
			 0.137807  0.964360  0.225874
			-0.032625  0.980289  0.194859
			 0.094731  0.964493  0.246536
			-0.124348  0.972250  0.198162
			-0.135061  0.973500  0.184542
			-0.058225  0.979308  0.193820
			-0.162600  0.973215  0.162521
			 0.696044  0.668064  0.263084
			 0.738178  0.595665  0.316663
			 0.714932  0.575704  0.396784
			 0.141802  0.953723  0.265150
			 0.199025  0.952793  0.229290
			 0.419610  0.871925  0.252338
			 0.627911  0.737875  0.247525
			 0.267542  0.882252  0.387366
			 0.336506  0.838158  0.429250
			 0.631459  0.717248  0.294642
			 0.547622  0.801207  0.241200
			 0.477941  0.768649  0.425149
			 0.769519  0.597615  0.225159
			 0.124458  0.937514  0.324926
			 0.840023  0.498068  0.215151
			-0.085778  0.965965  0.244037
			-0.179991  0.955626  0.233199
			-0.050815  0.961447  0.270256
			-0.059929  0.966307  0.250320
			-0.143868  0.958753  0.245144
			-0.176883  0.928472  0.326575
			-0.379792  0.881612  0.280210
			 0.157606  0.898215  0.410330
			 0.002081  0.968850  0.247642
			-0.264684  0.929662  0.256266
			-0.111060  0.958114  0.263976
			-0.416614  0.874756  0.247455
			-0.242914  0.940207  0.238753
			-0.121535  0.966120  0.227686
			-0.083288  0.968398  0.235093
			-0.001913  0.927544  0.373709
			 0.168392  0.942544  0.288539
			-0.221951  0.965607  0.135424
			-0.186935  0.940258  0.284554
			-0.229719  0.904762  0.358656
			-0.185276  0.970836  0.152154
			-0.167147  0.931513  0.323025
			-0.128531  0.956385  0.262314
			-0.154260  0.964562  0.214064
			-0.199539  0.952489  0.230106
			-0.217667  0.961998  0.164869
			 0.866266  0.462654  0.188507
			 0.901739  0.394491  0.176757
			 0.936089  0.255649  0.241623
			 0.941600  0.226399  0.249264
			 0.939158  0.274165  0.206921
			 0.071016  0.900111  0.429833
			 0.151548  0.873012  0.463556
			 0.355167  0.902617  0.243185
			 0.240917  0.910969  0.334805
			 0.542567  0.789053  0.288126
			 0.514595  0.785222  0.344410
			 0.783065  0.529352  0.326489
			 0.333463  0.804957  0.490761
			 0.354793  0.818955  0.451037
			 0.913802  0.284940  0.289439
			 0.988280  0.113484  0.102096
			 0.984183 -0.005510  0.177070
			 0.968290  0.179974  0.173275
			 0.603751  0.638284  0.477576
			 0.887370  0.318073  0.333774
			 0.961857  0.192723  0.194136
			 0.991807  0.095409  0.084950
			-0.042665  0.966659  0.252489
			-0.060454  0.963871  0.259420
			-0.109422  0.922189  0.370937
			-0.334920  0.878639  0.340326
			-0.297342  0.922427  0.246405
			-0.394313  0.870556  0.294361
			 0.288971  0.838594  0.461797
			 0.056227  0.909692  0.411460
			-0.484644  0.871136  0.079009
			-0.054523  0.971701  0.229837
			-0.202647  0.966493  0.157560
			 0.080796  0.948755  0.305511
			-0.537044  0.839110 -0.086481
			-0.191647  0.827551  0.527665
			-0.084121  0.762963  0.640945
			 0.147201  0.870504  0.469633
			 0.219709  0.669842  0.709253
			-0.296268  0.818498  0.492226
			-0.253200  0.924323  0.285510
			-0.301650  0.714885  0.630830
			-0.287279  0.951005  0.114283
			-0.126524  0.949339  0.287657
			-0.368897  0.911176  0.183506
			-0.187282  0.955980  0.225892
			-0.242345  0.934814  0.259597
			-0.509175  0.856414  0.085409
			-0.498892  0.859809  0.108790
			-0.523054  0.841781  0.133490
			-0.471507  0.876262  0.099224
			 0.967839  0.213917  0.132393
			 0.902659  0.338125  0.266231
			 0.994812  0.080008  0.062830
			 0.997993 -0.058519  0.024179
			 0.996974 -0.037250  0.068236
			 0.067782  0.537799  0.840344
			 0.281888  0.788748  0.546275
			 0.086076  0.629391  0.772307
			 0.116681  0.568920  0.814074
			 0.449849  0.806617  0.383412
			 0.705491  0.564959  0.427907
			 0.886919  0.289515  0.359938
			 0.952985  0.184879  0.240083
			 0.232715  0.812954  0.533806
			 0.104382  0.861698  0.496569
			 0.394916  0.730770  0.556791
			 0.964929 -0.262487  0.003546
			 0.993992 -0.108313  0.015759
			 0.975787 -0.217812 -0.019928
			 0.984391 -0.126710  0.122141
			 0.959167 -0.280762  0.034232
			 0.887927  0.275195  0.368584
			 0.875802  0.234664  0.421787
			 0.975286 -0.173297  0.137057
			 0.987777 -0.089863  0.127362
			-0.199083  0.898061  0.392240
			-0.418547  0.837056  0.352357
			-0.395058  0.827767  0.398411
			-0.552085  0.832767  0.041245
			-0.611040  0.745921  0.265013
			-0.604187  0.768528  0.210530
			-0.579522  0.803837  0.134166
			-0.149282  0.888169  0.434592
			-0.616085  0.785261 -0.061676
			-0.815627  0.565190 -0.123747
			-0.888340  0.358020 -0.287531
			-0.933547  0.266669 -0.239536
			-0.901281  0.291933 -0.320106
			-0.907524  0.242243 -0.343102
			-0.194812  0.545289  0.815296
			 0.192355  0.469473  0.861739
			 0.093368  0.265094  0.959691
			-0.386510  0.621251  0.681658
			-0.412749  0.761867  0.499196
			-0.401622  0.904539  0.143210
			-0.546730  0.801561  0.242045
			-0.308690  0.314985  0.897494
			-0.420794  0.335614  0.842791
			-0.519036  0.849239  0.096923
			-0.693666  0.717986 -0.057659
			-0.863307  0.452282 -0.223924
			-0.749755  0.657584 -0.073833
			-0.847159  0.529221 -0.047404
			-0.749583  0.651771 -0.115417
			-0.821936  0.540440 -0.179851
			-0.738230  0.673311  0.040866
			 0.980391 -0.127590  0.150177
			 0.974952 -0.222343 -0.005681
			 0.971698 -0.217578 -0.091995
			 0.970124 -0.241798 -0.019810
			 0.955339 -0.278340 -0.099272
			 0.884827 -0.447225 -0.130659
			 0.009517  0.152943  0.988189
			 0.145894  0.128634  0.980902
			-0.010166  0.184335  0.982811
			 0.289495  0.534669  0.793928
			 0.582172  0.608014  0.539810
			 0.438190  0.493450  0.751330
			 0.122775  0.127241  0.984244
			 0.815232  0.171051  0.553297
			 0.943520 -0.070538  0.323720
			 0.848684 -0.231987  0.475308
			 0.141340  0.820730  0.553557
			 0.205764  0.805791  0.555303
			-0.079218  0.885966  0.456934
			-0.097790  0.876713  0.470968
			 0.311441  0.755177  0.576812
			 0.544040  0.617019  0.568602
			 0.853735 -0.509223 -0.108760
			 0.905016 -0.417076 -0.083625
			 0.884495 -0.435486 -0.167392
			 0.950127 -0.300222 -0.084412
			 0.939603 -0.341730  0.019172
			 0.672125  0.499398  0.546672
			 0.956624 -0.241858  0.162404
			 0.909187 -0.415490 -0.027341
			 0.857386 -0.509977 -0.069374
			-0.283099  0.867619  0.408770
			-0.665989  0.668160  0.331694
			-0.553188  0.713699  0.429672
			-0.312331  0.843682  0.436634
			-0.846043  0.526250 -0.085272
			-0.852448  0.502280  0.145077
			-0.799974  0.599514  0.024989
			-0.890360  0.455238  0.004231
			-0.223075  0.836456  0.500578
			-0.889143  0.245401 -0.386268
			-0.865249  0.433084 -0.252551
			-0.898199 -0.105820 -0.426661
			-0.924606 -0.022973 -0.380232
			-0.950464  0.089600 -0.297639
			-0.888911 -0.173644 -0.423893
			 0.209392 -0.103392  0.972350
			-0.120754 -0.244292  0.962154
			-0.203250  0.170989  0.964081
			-0.455090  0.432314  0.778459
			-0.527643  0.135795  0.838542
			-0.639771  0.636290  0.431078
			-0.790417  0.597391  0.135515
			-0.414935 -0.018858  0.909656
			-0.540160 -0.081932  0.837565
			-0.892009  0.016576 -0.451713
			-0.912854  0.211486 -0.349245
			-0.890041  0.140237 -0.433775
			-0.878593 -0.045820 -0.475369
			-0.958725  0.218451 -0.182007
			-0.872000  0.480958 -0.091076
			-0.908094  0.357673 -0.217795
			-0.967182  0.252378 -0.029396
			 0.903001 -0.425261  0.061172
			 0.886047 -0.388320  0.253235
			 0.908588 -0.398354 -0.125626
			 0.859800 -0.505890 -0.069419
			 0.841799 -0.510787 -0.174560
			 0.850889 -0.499461 -0.162871
			 0.677341 -0.670946 -0.301730
			 0.680178 -0.691635 -0.242898
			 0.050231 -0.265113  0.962908
			 0.275623 -0.440368  0.854464
			 0.029902 -0.162722  0.986219
			 0.322169  0.147624  0.935101
			 0.676378  0.337085  0.654894
			 0.458498  0.053358  0.887092
			-0.002553 -0.512980  0.858397
			 0.241888 -0.148937  0.958806
			 0.689509 -0.147749  0.709047
			 0.610138 -0.368801  0.701225
			 0.677997 -0.181966  0.712186
			 0.848460 -0.428070  0.311243
			 0.735279 -0.407290  0.541737
			 0.618696 -0.420650  0.663528
			-0.048243  0.853629  0.518642
			 0.169573  0.763859  0.622707
			 0.362559  0.671691  0.646052
			 0.745758 -0.636436 -0.196961
			 0.702042 -0.669905 -0.241588
			 0.632587 -0.724492 -0.273760
			 0.705776 -0.679624 -0.199981
			 0.688987 -0.695738 -0.203091
			 0.702825 -0.683809 -0.196065
			 0.760850 -0.607453 -0.228271
			 0.869061  0.128426  0.477745
			 0.936815 -0.347021  0.044207
			 0.757578 -0.618112 -0.209796
			 0.771872 -0.625396 -0.114427
			 0.795483 -0.592931 -0.125061
			 0.695247 -0.683350 -0.222854
			-0.933957  0.342600  0.101731
			-0.449497  0.697483  0.558096
			-0.918495  0.335041  0.210032
			-0.984279  0.150446 -0.092524
			-0.968012  0.219582 -0.121392
			-0.938251 -0.138128 -0.317185
			-0.110473  0.811675  0.573567
			-0.195388  0.752134  0.629379
			-0.257729  0.764826  0.590438
			-0.829903 -0.216467 -0.514202
			-0.765299 -0.394548 -0.508576
			-0.865077 -0.236427 -0.442429
			-0.715237 -0.492182 -0.496179
			-0.779202 -0.392188 -0.488910
			-0.872054 -0.290499 -0.393868
			-0.814293 -0.336224 -0.473159
			-0.732092 -0.470774 -0.492355
			 0.124521 -0.694945  0.708199
			-0.494838 -0.553048  0.670278
			-0.270427 -0.758078  0.593453
			-0.576840  0.354966  0.735700
			-0.395137 -0.319036  0.861442
			-0.432051 -0.097518  0.896561
			-0.497605 -0.535810  0.682127
			-0.863387  0.427929  0.267282
			-0.782947  0.362152  0.505807
			-0.982072  0.165157  0.090869
			-0.818269 -0.250631 -0.517320
			-0.930096 -0.019544 -0.366797
			-0.904496  0.033493 -0.425165
			-0.861579 -0.096002 -0.498463
			-0.882858 -0.026327 -0.468901
			-0.848067 -0.162937 -0.504216
			-0.873386 -0.098962 -0.476867
			-0.977321 -0.191834 -0.089682
			-0.932505 -0.225285 -0.282277
			-0.973752 -0.217839  0.065975
			 0.821390 -0.556529  0.124877
			 0.794624 -0.570012 -0.208949
			 0.760088 -0.635581 -0.135292
			 0.668083 -0.701926 -0.246911
			 0.594680 -0.737147 -0.320891
			 0.588446 -0.722396 -0.363146
			 0.603917 -0.709876 -0.362437
			 0.693449 -0.648759 -0.313433
			 0.573443 -0.766546 -0.289085
			 0.100784 -0.727571  0.678589
			 0.253393 -0.725872  0.639455
			 0.296627 -0.409222  0.862873
			-0.120515 -0.682845  0.720555
			-0.140758 -0.651989  0.745049
			 0.824705 -0.502219  0.260072
			 0.771070 -0.450455  0.450046
			 0.358938 -0.496102  0.790599
			-0.077670  0.850001  0.521023
			-0.003251  0.806886  0.590698
			 0.138717  0.718090  0.681986
			 0.356947  0.631135  0.688664
			 0.541199 -0.785766 -0.299459
			 0.539691 -0.793426 -0.281440
			 0.363248 -0.866906 -0.341358
			 0.515125 -0.798785 -0.310787
			 0.472252 -0.813801 -0.338683
			 0.489302 -0.820842 -0.294622
			 0.897719 -0.152799  0.413223
			 0.524351  0.459550  0.716847
			 0.815925 -0.551123  0.174729
			 0.785046 -0.619061 -0.021591
			 0.778888 -0.620173 -0.093374
			 0.529940 -0.781488 -0.329303
			 0.538784 -0.772810 -0.335376
			 0.605113 -0.740809 -0.291616
			 0.617624 -0.752164 -0.229760
			 0.439297 -0.832902 -0.336588
			-0.995309 -0.013087 -0.095859
			-0.975613  0.024356 -0.218141
			-0.926943 -0.193473 -0.321474
			-0.858520  0.387814  0.335474
			-0.268446  0.691966  0.670164
			-0.577517  0.600059  0.553537
			-0.985692 -0.150855 -0.075188
			-0.966804 -0.221831 -0.126808
			-0.924509 -0.221895 -0.309911
			-0.768902 -0.470365 -0.433067
			-0.754135 -0.453951 -0.474561
			-0.771431 -0.425619 -0.473016
			-0.072930  0.824599  0.560998
			-0.076301  0.757759  0.648058
			-0.735599 -0.421046 -0.530673
			-0.608783 -0.588979 -0.531495
			-0.580435 -0.632634 -0.512708
			-0.657958 -0.554370 -0.509671
			-0.500241 -0.701115 -0.508131
			-0.469093 -0.708571 -0.527142
			-0.697547 -0.519415 -0.493595
			-0.647602 -0.551118 -0.526195
			-0.670852 -0.535042 -0.513505
			-0.563416 -0.665198 -0.489973
			-0.032699 -0.777740  0.627735
			-0.394788 -0.722757  0.567243
			-0.439583 -0.733770  0.518023
			-0.525104 -0.726032  0.444008
			-0.669681 -0.237734  0.703569
			-0.295082 -0.639820  0.709617
			-0.250253 -0.757266  0.603259
			-0.923201 -0.075082  0.376912
			-0.683113 -0.459905 -0.567313
			-0.704909 -0.406308 -0.581392
			-0.802044 -0.336315 -0.493577
			-0.782500 -0.284386 -0.553912
			-0.928383 -0.356048 -0.106465
			-0.915218 -0.394769 -0.080828
			-0.873138 -0.454745 -0.175606
			-0.753045 -0.531724 -0.387548
			-0.957287 -0.282328  0.062392
			-0.725554 -0.445812  0.524236
			 0.754553 -0.643424  0.129059
			 0.650076 -0.701444 -0.292193
			 0.674581 -0.704975 -0.218974
			 0.692447 -0.719501 -0.053254
			 0.464973 -0.777962 -0.422581
			 0.412513 -0.827452 -0.380993
			 0.603827 -0.740213 -0.295767
			 0.461921 -0.824219 -0.327555
			 0.111303 -0.663543  0.739813
			 0.203882 -0.514171  0.833103
			-0.102728 -0.559759  0.822263
			-0.032655 -0.560491  0.827517
			-0.120898 -0.476608  0.870763
			 0.478953 -0.581469  0.657646
			-0.111745  0.800394  0.588967
			 0.262339  0.615894  0.742868
			-0.068656  0.753102  0.654312
			 0.097441  0.640826  0.761477
			 0.406067 -0.846160 -0.345142
			 0.165508 -0.906597 -0.388188
			 0.204538 -0.900175 -0.384511
			 0.371403 -0.854810 -0.362436
			 0.101138 -0.900992 -0.421882
			 0.234408 -0.872299 -0.429124
			 0.193185 -0.901346 -0.387629
			 0.299993 -0.887823 -0.348961
			 0.218296 -0.879487 -0.422907
			 0.299789 -0.858120 -0.416842
			 0.243469 -0.875038 -0.418368
			 0.693922  0.297202  0.655853
			 0.908484 -0.375840  0.182757
			 0.958824 -0.231364  0.164705
			 0.623892 -0.773219 -0.113537
			 0.874199 -0.485255  0.017404
			 0.420392 -0.856715 -0.298847
			 0.291682 -0.855824 -0.427184
			 0.372820 -0.834956 -0.404788
			 0.229010 -0.855993 -0.463499
			 0.333738 -0.826445 -0.453439
			 0.380246 -0.825683 -0.416727
			-0.869502 -0.343217 -0.355201
			-0.754867 -0.487063 -0.439255
			-0.981484  0.145822  0.124194
			-0.885138  0.413835  0.212771
			-0.086364  0.670164  0.737172
			-0.339107  0.613245  0.713399
			-0.576347  0.644527  0.502402
			-0.994514  0.009790 -0.104149
			-0.908963 -0.265728 -0.321210
			-0.877107 -0.419231 -0.234368
			-0.905996 -0.388870 -0.167186
			-0.829696 -0.465350 -0.308310
			-0.678664 -0.554133 -0.482029
			-0.635985 -0.589366 -0.498167
			-0.539869 -0.684227 -0.490280
			-0.523983 -0.670997 -0.524601
			-0.034231  0.780268  0.624508
			 0.009775  0.772905  0.634446
			 0.114634  0.752337  0.648728
			-0.607691 -0.576636 -0.546079
			-0.417074 -0.752295 -0.510001
			-0.381865 -0.773777 -0.505419
			-0.334261 -0.785343 -0.521063
			-0.334266 -0.779276 -0.530090
			-0.331491 -0.798347 -0.502749
			-0.479734 -0.658144 -0.580260
			-0.301548 -0.754899 -0.582406
			-0.458850 -0.672350 -0.580863
			-0.522474 -0.634333 -0.569775
			-0.479335 -0.694363 -0.536747
			-0.458846 -0.701112 -0.545805
			-0.517460 -0.668925 -0.533644
			-0.460091 -0.592494  0.661262
			-0.439562 -0.540602  0.717310
			-0.223377 -0.702129  0.676105
			-0.748788 -0.398052  0.529973
			-0.185069 -0.543670  0.818640
			-0.525431 -0.624302 -0.578074
			-0.528328 -0.607641 -0.592995
			-0.641773 -0.538270 -0.546254
			-0.828715 -0.475915 -0.294509
			-0.911115 -0.306495 -0.275556
			-0.954121 -0.284722 -0.092664
			-0.580456 -0.622874 -0.524499
			-0.889549 -0.342063  0.302811
			-0.456495 -0.473625  0.753188
			 0.642977 -0.761598 -0.080923
			 0.557224 -0.827341 -0.070773
			 0.604597 -0.779541  0.163641
			 0.340296 -0.813781 -0.471125
			 0.212210 -0.841999 -0.495988
			 0.345229 -0.848421 -0.401246
			 0.464668 -0.842004 -0.274066
			 0.191159 -0.386682  0.902183
			 0.223981 -0.198273  0.954212
			-0.246674 -0.006082  0.969079
			-0.413651 -0.345895  0.842170
			-0.115700 -0.348370  0.930189
			-0.137698 -0.252259  0.957812
			 0.492461 -0.845369  0.206960
			 0.336191 -0.625497  0.704081
			-0.193064  0.778723  0.596923
			-0.117144  0.793049  0.597788
			 0.397407  0.506756  0.765027
			-0.157849  0.748589  0.643970
			 0.143601  0.611691  0.777954
			-0.061513  0.722413  0.688720
			 0.050314 -0.897770 -0.437581
			-0.035727 -0.895581 -0.443463
			 0.247115 -0.885753 -0.392908
			 0.104258 -0.876665 -0.469668
			-0.033803 -0.854876 -0.517730
			-0.136164 -0.848692 -0.511060
			 0.093363 -0.892563 -0.441151
			 0.033427 -0.870466 -0.491093
			-0.035872 -0.873537 -0.485435
			 0.062284 -0.867430 -0.493645
			 0.717820  0.373658  0.587464
			 0.896963  0.029885  0.441094
			 0.944741 -0.323754 -0.051460
			 0.942126 -0.334421  0.023671
			 0.703170 -0.689014 -0.175533
			 0.967103  0.040780  0.251093
			 0.310486 -0.886050 -0.344259
			 0.172718 -0.853909 -0.490926
			 0.223930 -0.896937 -0.381262
			-0.006859 -0.870335 -0.492412
			-0.035537 -0.844698 -0.534062
			 0.126479 -0.835726 -0.534383
			 0.277076 -0.833288 -0.478393
			 0.104475 -0.832062 -0.544755
			 0.095856 -0.820487 -0.563571
			-0.719039 -0.558955 -0.412980
			-0.977441  0.145905 -0.152711
			-0.820156  0.529195  0.217480
			-0.944903  0.309243 -0.107366
			-0.157365  0.746033  0.647048
			-0.346540  0.699427  0.625070
			-0.386609  0.759220  0.523563
			-0.914280 -0.133308 -0.382520
			-0.826739 -0.263133 -0.497256
			-0.827769 -0.420642 -0.371293
			-0.819078 -0.531828 -0.215104
			-0.589653 -0.732205 -0.340858
			-0.692905 -0.650895 -0.310191
			-0.421990 -0.701391 -0.574434
			-0.384100 -0.826938 -0.410658
			-0.191937 -0.846589 -0.496435
			-0.189852 -0.779370 -0.597109
			-0.295098 -0.787475 -0.541110
			-0.220694 -0.820694 -0.527025
			 0.011660  0.812864  0.582337
			 0.205031  0.856339  0.473969
			 0.114905  0.829890  0.545967
			-0.179732 -0.853450 -0.489203
			-0.282560 -0.822455 -0.493688
			-0.260776 -0.802951 -0.535972
			-0.143952 -0.862697 -0.484800
			-0.246702 -0.829641 -0.500834
			-0.265524 -0.820537 -0.506179
			-0.239269 -0.827580 -0.507801
			-0.176535 -0.868807 -0.462612
			-0.533184 -0.591206 -0.605137
			-0.482508 -0.611227 -0.627366
			-0.083362 -0.796183 -0.599286
			-0.174944 -0.735014 -0.655094
			-0.567651 -0.621170 -0.540296
			-0.327779 -0.712137 -0.620823
			-0.536288 -0.593197 -0.600427
			-0.315251 -0.485073  0.815672
			-0.805983 -0.544903 -0.231239
			-0.795560 -0.583225  0.164114
			-0.538143 -0.616113 -0.575159
			-0.615753 -0.636814 -0.464021
			-0.650674 -0.664534  0.367449
			-0.315897 -0.263140  0.911574
			-0.340965 -0.354801  0.870551
			 0.337021 -0.921700 -0.192056
			 0.333016 -0.941934  0.043142
			 0.171142 -0.807729 -0.564167
			 0.310178 -0.875709 -0.370031
			 0.164473 -0.796367 -0.582020
			 0.184555 -0.860352 -0.475115
			 0.052644 -0.831328 -0.553283
			 0.267868  0.015173  0.963336
			 0.099413 -0.127886  0.986794
			 0.134370 -0.036955  0.990242
			-0.409865 -0.099480  0.906705
			-0.492161  0.154010  0.856772
			-0.427424  0.216267  0.877803
			-0.217394  0.002329  0.976081
			-0.175159 -0.235650  0.955923
			 0.012526 -0.189798  0.981743
			-0.169793 -0.080600  0.982178
			 0.319008 -0.622318  0.714810
			 0.371157 -0.843833  0.387542
			-0.141954  0.837219  0.528122
			 0.294115  0.684890  0.666650
			-0.110696  0.867402  0.485139
			-0.083831 -0.879402 -0.468641
			 0.601452  0.656338  0.455495
			 0.864006 -0.490873 -0.111972
			 0.830075 -0.533743 -0.161538
			 0.995778 -0.085860 -0.032468
			 0.994574 -0.013854  0.103107
			 0.916786 -0.399376 -0.001763
			 0.970130 -0.228356 -0.081865
			 0.500738 -0.767277 -0.400683
			 0.313565 -0.828203 -0.464497
			 0.315561 -0.879174 -0.357037
			 0.702262  0.662605  0.260350
			 0.120504 -0.890952 -0.437817
			 0.124433 -0.874562 -0.468677
			 0.040254 -0.865421 -0.499426
			 0.072194 -0.829645 -0.553604
			 0.082723 -0.833951 -0.545603
			-0.138196 -0.829258 -0.541510
			-0.012473 -0.819445 -0.573023
			-0.254456 -0.769974 -0.585143
			 0.034603 -0.814256 -0.579473
			 0.004302 -0.824486 -0.565866
			-0.915919  0.088975 -0.391378
			-0.875984  0.420645 -0.236027
			-0.524901  0.801273  0.287125
			-0.008580  0.934380  0.356173
			-0.855550 -0.119935 -0.503636
			-0.426725 -0.780157 -0.457451
			-0.855501 -0.068663 -0.513228
			-0.738568 -0.334374 -0.585416
			-0.501199 -0.671758 -0.545473
			-0.264767 -0.869612 -0.416740
			-0.164118 -0.868444 -0.467836
			-0.057090 -0.814727 -0.577028
			-0.038333 -0.852083 -0.522001
			 0.040408  0.899891  0.434240
			 0.287293  0.885020  0.366337
			 0.232681  0.943882  0.234407
			 0.044745 -0.803584 -0.593507
			 0.071707 -0.789927 -0.608993
			-0.004592 -0.767821 -0.640648
			-0.087866 -0.748066 -0.657782
			-0.550779 -0.713048 -0.433826
			-0.683794 -0.724738 -0.084732
			-0.633059 -0.733295 -0.248022
			-0.162176 -0.804327 -0.571627
			-0.237512 -0.838191 -0.490942
			-0.632691 -0.692628  0.346364
			-0.332038 -0.048502  0.942018
			-0.591848 -0.184359  0.784683
			 0.199404 -0.939522 -0.278454
			 0.307302 -0.834149  0.457997
			 0.214865 -0.950405  0.224864
			 0.160245 -0.984157 -0.075870
			 0.017486 -0.806754 -0.590629
			-0.010156 -0.856905 -0.515373
			-0.001563 -0.913843 -0.406065
			 0.311325 -0.323071  0.893701
			 0.158170 -0.093825  0.982944
			 0.205012 -0.486993  0.849004
			-0.011864 -0.717627  0.696327
			-0.433223 -0.474618  0.766195
			-0.639342 -0.125425  0.758624
			-0.057301  0.946301  0.318167
			 0.081478  0.953932  0.288746
			-0.098444  0.977916  0.184360
			 0.803418 -0.475552 -0.358287
			 0.946172  0.230308 -0.227412
			 0.849711  0.526868  0.020034
			 0.944543 -0.043663 -0.325472
			 0.402743 -0.711167 -0.576228
			 0.159929 -0.723268 -0.671794
			 0.089690 -0.803459 -0.588565
			 0.096839 -0.878746 -0.467361
			 0.255769  0.964501  0.065721
			-0.009236 -0.847101 -0.531352
			-0.009639 -0.820568 -0.571467
			-0.345697  0.901513 -0.260322
			-0.803089  0.415619 -0.426976
			-0.470953  0.868822  0.152813
			-0.461732  0.884541 -0.066261
			-0.924338 -0.001030 -0.381573
			-0.080187  0.968924  0.233999
			-0.131324 -0.833221 -0.537118
			-0.084566 -0.824650 -0.559287
			-0.860317 -0.137344 -0.490908
			-0.414998 -0.587431 -0.694767
			 0.176122  0.956620  0.232075
			 0.068386  0.957963  0.278623
			-0.027715  0.999585 -0.007852
			 0.193693  0.980768  0.024033
			 0.326480  0.940284 -0.096318
			-0.537129 -0.817014 -0.209714
			-0.203270 -0.891672 -0.404478
			-0.464023 -0.885814  0.003960
			-0.611337 -0.779153  0.138518
			-0.688981 -0.634391  0.350504
			-0.603689 -0.681944  0.412931
			 0.004869 -0.972600 -0.232432
			-0.000788 -0.989935  0.141523
			-0.313347 -0.874899  0.369278
			-0.211418 -0.895983  0.390534
			-0.263245 -0.952558  0.152757
			 0.117369  0.991476  0.056563
			-0.035340  0.997846  0.055258
			-0.009717  0.986679 -0.162387
			 0.680001 -0.226795 -0.697254
			 0.356565 -0.555266 -0.751359
			 0.623724  0.678325 -0.388386
			 0.622959  0.316185 -0.715506
			 0.444945  0.881827 -0.156223
			 0.126633 -0.514290 -0.848216
			 0.035591 -0.679247 -0.733046
			 0.026639  0.988693 -0.147566
			 0.145691  0.973753 -0.174871
			-0.018947 -0.793869 -0.607793
			-0.057790 -0.790038 -0.610328
			-0.005538 -0.754873 -0.655847
			 0.062891 -0.680987 -0.729590
			-0.326066  0.807847 -0.490982
			 0.256994  0.941233 -0.219170
			-0.723570  0.436158 -0.534989
			-0.912574  0.007499 -0.408843
			-0.780852 -0.231939 -0.580065
			-0.211072 -0.354944 -0.910749
			-0.073970 -0.660227 -0.747415
			 0.315806  0.948664  0.017427
			 0.254830  0.955273 -0.150051
			 0.196694  0.908012 -0.369900
			 0.214516  0.725521 -0.653913
			 0.446312  0.619059 -0.646197
			 0.015003 -0.887037 -0.461454
			-0.170553 -0.982605 -0.073474
			-0.154682 -0.985744  0.066193
			 0.111030  0.935177 -0.336328
			 0.168134  0.916336 -0.363399
			 0.023886  0.912658 -0.408026
			 0.051508  0.917601 -0.394151
			 0.232204 -0.093297 -0.968182
			 0.194106  0.750529 -0.631687
			 0.158516  0.358229 -0.920079
			 0.146216 -0.339873 -0.929036
			 0.093480 -0.636048 -0.765967
			 0.131207 -0.536980 -0.833329
			 0.098221 -0.592415 -0.799623
			-0.099643  0.602369 -0.791974
			-0.618891  0.397848 -0.677267
			-0.818658  0.284413 -0.498907
			-0.650318 -0.033905 -0.758905
			 0.077887 -0.571059 -0.817206
			-0.053393  0.232191 -0.971204
			 0.289270 -0.017716 -0.957083
			 0.190803 -0.365801 -0.910925
			 0.396317  0.296079 -0.869063
			 0.077704  0.150341 -0.985576
			 0.387523  0.030859 -0.921344
			 0.337837  0.160787 -0.927369
			 0.139490 -0.301862 -0.943092
			 0.325182 -0.174941 -0.929329
			 0.000000  0.000000  1.000000
		</DataArray>
	</PointData>
	<Points>
		<DataArray type="Float32" NumberOfComponents="3" format="ascii">
			 0.016331 -0.086997 -0.034660
			 0.015484 -0.087264 -0.033163
			 0.016471 -0.088003 -0.031662
			 0.016855 -0.086948 -0.035141
			 0.014882 -0.086821 -0.034186
			 0.016172 -0.086754 -0.035213
			 0.015288 -0.087692 -0.031657
			 0.014563 -0.087682 -0.031422
			 0.014770 -0.087107 -0.033351
			 0.014090 -0.087546 -0.031764
			 0.017074 -0.087767 -0.032616
			 0.015751 -0.087943 -0.031138
			 0.016622 -0.088307 -0.030705
			 0.017433 -0.088161 -0.031697
			 0.016728 -0.086624 -0.035937
			 0.017553 -0.086568 -0.035994
			 0.017210 -0.087425 -0.033582
			 0.014225 -0.087140 -0.033291
			 0.015518 -0.086365 -0.035598
			 0.015731 -0.085829 -0.037030
			 0.014774 -0.087865 -0.030647
			 0.013979 -0.087985 -0.029650
			 0.013232 -0.087801 -0.030863
			 0.017134 -0.087608 -0.033108
			 0.018082 -0.087866 -0.032511
			 0.014962 -0.088150 -0.029337
			 0.015632 -0.088438 -0.028669
			 0.017336 -0.088589 -0.029479
			 0.017813 -0.088540 -0.030617
			 0.017416 -0.086211 -0.037199
			 0.016715 -0.086076 -0.037025
			 0.018444 -0.086300 -0.036882
			 0.018810 -0.086005 -0.037947
			 0.017580 -0.086909 -0.035001
			 0.018320 -0.086625 -0.035903
			 0.018630 -0.087171 -0.034390
			 0.014571 -0.086569 -0.035283
			 0.013333 -0.087269 -0.033520
			 0.013603 -0.087338 -0.032917
			 0.015149 -0.086017 -0.036643
			 0.015685 -0.085469 -0.038015
			 0.016377 -0.085098 -0.038869
			 0.016528 -0.085343 -0.038398
			 0.014216 -0.086275 -0.036962
			 0.015039 -0.085671 -0.037935
			 0.014462 -0.088134 -0.029061
			 0.013168 -0.088086 -0.029045
			 0.013906 -0.088299 -0.028053
			 0.013116 -0.087515 -0.032508
			 0.012399 -0.087941 -0.029884
			 0.012408 -0.087664 -0.032057
			 0.012094 -0.087754 -0.031624
			 0.018275 -0.088590 -0.031133
			 0.018405 -0.088517 -0.031667
			 0.018676 -0.088186 -0.032617
			 0.014608 -0.088444 -0.028121
			 0.016006 -0.088601 -0.027898
			 0.017640 -0.088905 -0.029026
			 0.018357 -0.089007 -0.030180
			 0.017371 -0.085710 -0.038333
			 0.016887 -0.085679 -0.037950
			 0.018676 -0.087021 -0.034999
			 0.019042 -0.085819 -0.038888
			 0.019205 -0.085555 -0.039898
			 0.019345 -0.086452 -0.037810
			 0.018345 -0.086820 -0.035420
			 0.018921 -0.087611 -0.034021
			 0.013430 -0.087000 -0.034452
			 0.014026 -0.086703 -0.035459
			 0.012868 -0.087096 -0.034092
			 0.012664 -0.087410 -0.033119
			 0.013926 -0.086575 -0.035996
			 0.015984 -0.084744 -0.039915
			 0.015381 -0.085054 -0.039609
			 0.016784 -0.084752 -0.039787
			 0.012498 -0.086574 -0.036232
			 0.014323 -0.085976 -0.037960
			 0.013964 -0.086158 -0.037532
			 0.014827 -0.085399 -0.039467
			 0.014597 -0.085634 -0.038903
			 0.012509 -0.088452 -0.027779
			 0.013078 -0.088409 -0.027595
			 0.013306 -0.088531 -0.027095
			 0.014088 -0.088497 -0.027545
			 0.011463 -0.088165 -0.029973
			 0.011089 -0.088567 -0.028133
			 0.011526 -0.088685 -0.027488
			 0.010849 -0.088356 -0.029550
			 0.012184 -0.088606 -0.027327
			 0.011940 -0.087411 -0.033316
			 0.010915 -0.087957 -0.031949
			 0.011533 -0.087753 -0.032426