<?xml version="1.0"?>
<VTKFile type="PolyData" version="0.1" byte_order="LittleEndian" compressor="vtkZLibDataCompressor">
	<PolyData>
		<Piece NumberOfPoints="448" NumberOfVerts="0" NumberOfLines="0" NumberOfStrips="0" NumberOfPolys="916">
		<PointData Normals="Normals">
		<DataArray type="Float32" Name="Normals" NumberOfComponents="3" format="ascii">
			 0.421869  0.765061 -0.486526
			 0.141698  0.540378 -0.829405
			 0.060795  0.974554 -0.215752
			 0.429742  0.896883 -0.104511
			 0.681503  0.600556 -0.418194
			 0.585678  0.118540 -0.801829
			-0.246871  0.907200 -0.340651
			 0.023369  0.997609  0.065040
			-0.233027  0.696706 -0.678453
			 0.119299  0.986526  0.111958
			 0.056282  0.993547  0.098475
			 0.524356  0.845726  0.098990
			-0.133820  0.134641 -0.981817
			 0.191987 -0.195878 -0.961651
			 0.727463 -0.019235 -0.685877
			 0.731530  0.645691 -0.218967
			-0.297927  0.944468 -0.138634
			-0.376741  0.910345 -0.171285
			-0.065004  0.993465  0.093820
			 0.029217  0.972229  0.232200
			-0.383076  0.348315 -0.855529
			-0.499056  0.718934 -0.483816
			 0.098958  0.962054  0.254282
			 0.376048  0.887307  0.266974
			 0.125224  0.910400  0.394322
			 0.036572 -0.583577 -0.811234
			 0.331981 -0.457213 -0.825073
			 0.903790  0.261082 -0.339116
			-0.620197  0.719775 -0.311897
			-0.368087  0.922895  0.113030
			-0.114035  0.968312  0.222188
			-0.042052  0.903543  0.426430
			-0.335458 -0.361637 -0.869878
			-0.667945  0.605755 -0.432331
			 0.887023  0.461700 -0.004811
			 0.488888  0.828737  0.272367
			 0.389788  0.786554  0.478955
			 0.119907  0.864237  0.488586
			-0.073357 -0.413387 -0.907596
			 0.646575 -0.558022 -0.520147
			 0.945814 -0.094169 -0.310753
			-0.720231  0.647658 -0.248607
			-0.229957  0.883869  0.407303
			-0.436976  0.842302  0.315563
			-0.055610  0.829479  0.555763
			-0.075734  0.830292  0.552160
			-0.135204  0.801630  0.582332
			-0.710431  0.353396 -0.608604
			 0.981080  0.135827  0.137963
			 0.784915  0.571560  0.239225
			 0.057069  0.821207  0.567769
			 0.051276  0.720839  0.691203
			 0.857213  0.449275  0.251669
			 0.743172  0.411666  0.527471
			 0.069458 -0.729900 -0.680016
			 0.287127 -0.666068 -0.688412
			 0.095977 -0.841534 -0.531610
			 0.064676 -0.777118 -0.626023
			-0.001823 -0.703991 -0.710206
			 0.867826 -0.424962 -0.257457
			-0.819932  0.317049 -0.476646
			-0.840506  0.215142 -0.497257
			-0.625447  0.773317  0.103908
			-0.565357  0.769371  0.297387
			-0.382116  0.779923  0.495689
			-0.117969  0.777880  0.617240
			-0.139758  0.793673  0.592074
			-0.578213 -0.409830 -0.705485
			-0.869089  0.089096 -0.486566
			 0.999158 -0.034195  0.022656
			 0.991879  0.034778  0.122342
			 0.459293  0.410594  0.787694
			 0.948987  0.207316  0.237579
			 0.059472  0.604859  0.794109
			-0.212912  0.742089  0.635589
			-0.100161 -0.796498 -0.596287
			 0.292279 -0.864510 -0.408895
			 0.090118 -0.851664 -0.516282
			 0.254098 -0.835633 -0.486982
			 0.468722 -0.794076 -0.386967
			-0.856994 -0.237031 -0.457577
			-0.898533  0.418865 -0.131115
			-0.674057  0.615346  0.408651
			-0.030536  0.784260  0.619680
			-0.204915  0.734795  0.646596
			-0.686138 -0.470138 -0.555143
			 0.845468 -0.531332 -0.053569
			 0.954640 -0.272778  0.119395
			-0.142966  0.714002  0.685392
			 0.928529 -0.293182  0.227768
			 0.432922  0.492648  0.754901
			 0.269226 -0.920302 -0.283835
			-0.409954 -0.755313 -0.511312
			-0.000649 -0.815738 -0.578421
			 0.339611 -0.799441 -0.495540
			 0.027485 -0.835762 -0.548403
			-0.090343 -0.867898 -0.488459
			 0.457485 -0.860854 -0.222797
			-0.828916 -0.321663 -0.457636
			-0.993887  0.086228 -0.068940
			-0.985827 -0.136694  0.097266
			-0.374276  0.615134  0.693922
			-0.199483  0.706979  0.678518
			-0.130693  0.821581  0.554908
			 0.584938 -0.808836 -0.060262
			 0.893194 -0.433702  0.118773
			 0.085743  0.793772  0.602142
			-0.008424  0.864679  0.502255
			 0.946143 -0.303140  0.113660
			 0.753889 -0.262827  0.602140
			 0.372050  0.736769  0.564580
			-0.337347 -0.853622 -0.396896
			-0.165592 -0.810855 -0.561333
			 0.501449 -0.837587 -0.216787
			 0.573000 -0.752257 -0.325240
			 0.382340 -0.789050 -0.480849
			 0.109850 -0.834638 -0.539734
			-0.286309 -0.755590 -0.589161
			-0.079432 -0.829420 -0.552950
			-0.190810 -0.799923 -0.568959
			-0.883895 -0.346774 -0.313810
			-0.784820 -0.547219 -0.290876
			-0.629947 -0.679629 -0.375861
			-0.718737  0.080639  0.690589
			-0.487920  0.525018  0.697345
			-0.370063  0.804285  0.464950
			-0.142024  0.892104  0.428928
			-0.163160  0.879126  0.447791
			-0.529873 -0.713537 -0.458366
			 0.595923 -0.798004 -0.089805
			 0.732177 -0.676898 -0.075667
			 0.069397  0.861506  0.502983
			 0.736258 -0.676690  0.003877
			 0.834078  0.074724  0.546562
			 0.495439  0.733475  0.465354
			 0.810480  0.290341  0.508748
			-0.399428 -0.761390 -0.510630
			 0.665400 -0.711733 -0.225119
			 0.322242 -0.826602 -0.461400
			 0.516132 -0.759529 -0.395882
			-0.443305 -0.694145 -0.567136
			-0.169834 -0.809184 -0.562475
			 0.013850 -0.837756 -0.545869
			-0.596972 -0.604404 -0.527561
			-0.834252 -0.501546 -0.229077
			-0.656128 -0.697990 -0.286889
			-0.333565  0.857354  0.392019
			-0.694728  0.639858  0.328534
			-0.135501  0.917715  0.373414
			 0.577392 -0.786635 -0.218688
			 0.716135 -0.691891 -0.091857
			 0.112457  0.879430  0.462554
			 0.559471  0.725458  0.400878
			 0.598274  0.737659  0.312934
			 0.923113  0.130480  0.361716
			 0.873565  0.382260  0.301265
			-0.682723 -0.604788 -0.410025
			-0.607410 -0.582225 -0.540433
			 0.727916 -0.637253 -0.253074
			 0.246358 -0.841140 -0.481446
			-0.302401 -0.741514 -0.598925
			 0.286112 -0.831564 -0.476068
			-0.846513 -0.522688 -0.101058
			-0.953929  0.039005  0.297485
			-0.426535  0.859747  0.280898
			-0.583195  0.775150  0.242951
			-0.144779  0.930942  0.335239
			-0.197172  0.895720  0.398510
			-0.353252  0.902198  0.247493
			 0.112722  0.909267  0.400658
			 0.885389 -0.458595  0.076006
			 0.256081  0.882653  0.394141
			 0.575577  0.775028  0.260850
			 0.857929  0.498608  0.123890
			 0.949654 -0.275597  0.149007
			 0.977356 -0.118344  0.175415
			-0.870465 -0.351544 -0.344539
			 0.884115 -0.451715 -0.119560
			 0.457828 -0.782569 -0.421877
			-0.875445 -0.270301 -0.400666
			-0.665717 -0.490187 -0.562617
			-0.021290 -0.819644 -0.572478
			 0.109027 -0.842821 -0.527035
			-0.477430 -0.638183 -0.603973
			 0.250889 -0.836500 -0.487156
			 0.115933 -0.837036 -0.534724
			-0.955478 -0.167497 -0.242912
			-0.952201  0.305063  0.015816
			-0.923043  0.375329 -0.084380
			-0.544963  0.827310  0.136288
			-0.817631  0.554744 -0.154074
			-0.296224  0.900409  0.318614
			-0.056073  0.904018  0.423801
			 0.040280  0.923222  0.382150
			-0.565278  0.822593  0.061659
			-0.561775  0.826333  0.039772
			 0.922687 -0.385052 -0.019567
			 0.140442  0.879920  0.453891
			 0.333101  0.851352  0.405270
			 0.988073  0.111414  0.106294
			 0.983198  0.182421  0.006711
			 0.991572 -0.103362  0.078113
			 0.798826 -0.558800 -0.222754
			 0.556145 -0.747006 -0.364259
			-0.912398 -0.064379 -0.404209
			-0.099630 -0.777498 -0.620944
			-0.628503 -0.514510 -0.583321
			-0.739293 -0.381011 -0.555227
			-0.504357 -0.557226 -0.659639
			 0.549109 -0.757068 -0.354015
			 0.273657 -0.809290 -0.519770
			-0.978292  0.116664 -0.171271
			-0.810473  0.526967 -0.255811
			-0.340830  0.896527  0.282974
			-0.203120  0.888747  0.410940
			-0.124601  0.886347  0.445942
			 0.000917  0.884818  0.465935
			-0.690430  0.715650 -0.105603
			-0.459144  0.875092  0.152974
			 0.245180  0.846362  0.472820
			 0.992108 -0.064982 -0.107238
			 0.895153  0.445047  0.025174
			 0.978001 -0.062719 -0.198948
			 0.898111 -0.389903 -0.203401
			 0.794068 -0.574799 -0.197643
			 0.187271 -0.770056 -0.609872
			 0.006848 -0.763114 -0.646228
			-0.212124 -0.690349 -0.691680
			-0.805408 -0.205670 -0.555893
			-0.190014 -0.657095 -0.729467
			-0.402501 -0.540085 -0.739122
			-0.535043 -0.383439 -0.752797
			 0.654495 -0.657894 -0.372574
			-0.895731  0.079742 -0.437388
			-0.867799  0.245555 -0.432004
			-0.357173  0.894403  0.269205
			-0.186853  0.906232  0.379248
			-0.262535  0.895508  0.359362
			-0.107080  0.860415  0.498216
			 0.023618  0.868792  0.494614
			 0.445649  0.794990  0.411567
			 0.302968  0.816460  0.491531
			 0.118939  0.825427  0.551836
			 0.947493 -0.066818 -0.312717
			 0.863068  0.493956 -0.105456
			 0.633503  0.724196  0.272422
			 0.770770 -0.418490 -0.480395
			 0.713014 -0.579222 -0.395110
			 0.158802 -0.722885 -0.672473
			-0.003880 -0.724265 -0.689511
			-0.733514 -0.152684 -0.662302
			 0.084218 -0.677893 -0.730321
			-0.096302 -0.555908 -0.825647
			-0.305761 -0.473267 -0.826153
			-0.382075 -0.382903 -0.841073
			 0.416530 -0.726209 -0.546922
			 0.591104 -0.655047 -0.470648
			 0.378827 -0.667275 -0.641275
			-0.788938  0.313147 -0.528692
			-0.718348  0.615844 -0.323593
			-0.364335  0.882317  0.297953
			-0.538076  0.827960  0.157975
			-0.215518  0.816030  0.536327
			-0.331973  0.837376  0.434276
			-0.124847  0.794129  0.594787
			 0.524834  0.761948  0.379453
			 0.274456  0.829050  0.487185
			 0.851265  0.019230 -0.524383
			 0.886323  0.392441 -0.245807
			 0.589090 -0.581855 -0.560729
			 0.716396 -0.194838 -0.669936
			 0.601277 -0.438799 -0.667774
			 0.195481 -0.652777 -0.731895
			-0.714540  0.161277 -0.680751
			 0.080810 -0.565220 -0.820972
			-0.136739 -0.346532 -0.928018
			-0.176129 -0.334886 -0.925651
			-0.199846 -0.257559 -0.945370
			-0.511301 -0.101927 -0.853336
			-0.618801  0.272485 -0.736775
			-0.571058  0.813662 -0.108846
			-0.466637  0.865403  0.182556
			-0.122818  0.888656  0.441823
			-0.531731  0.833646  0.149317
			-0.494143  0.785008  0.373611
			-0.027908  0.730639  0.682194
			-0.218551  0.703193  0.676576
			-0.201703  0.708263  0.676520
			-0.166528  0.648340  0.742916
			-0.296810  0.643878  0.705213
			 0.726949  0.652222  0.214827
			 0.560193  0.612136  0.558098
			 0.693471  0.606152  0.389459
			 0.302565  0.777116  0.551856
			 0.110796  0.648009  0.753531
			 0.879266 -0.126981 -0.459094
			 0.627940 -0.404663 -0.664785
			 0.613956 -0.427657 -0.663451
			 0.326311 -0.601341 -0.729321
			 0.221233 -0.613606 -0.757986
			-0.002598 -0.473548 -0.880764
			 0.072777 -0.509565 -0.857349
			 0.226244 -0.508768 -0.830644
			-0.080070 -0.427715 -0.900360
			-0.183087 -0.393949 -0.900713
			-0.419514 -0.037690 -0.906966
			-0.327650 -0.272374 -0.904687
			-0.390703 -0.003305 -0.920511
			 0.492329 -0.486463 -0.721780
			-0.643394  0.615413 -0.455314
			-0.451196  0.644370  0.617422
			-0.563427  0.734467  0.378298
			-0.267589  0.641682  0.718777
			-0.035891  0.518564  0.854285
			-0.353224  0.575598  0.737509
			-0.325497  0.603803  0.727650
			 0.824763  0.394942  0.404707
			 0.803713  0.069427  0.590952
			 0.491614  0.366298  0.790026
			 0.301207  0.576001  0.759932
			 0.928756  0.357898  0.096547
			 0.727524 -0.524085 -0.442768
			 0.468398 -0.552292 -0.689621
			 0.726761 -0.557393 -0.401412
			 0.388072 -0.504533 -0.771262
			 0.048214 -0.661132 -0.748719
			-0.169725 -0.655850 -0.735564
			 0.118421 -0.571116 -0.812282
			 0.307206 -0.614724 -0.726457
			 0.329110 -0.471236 -0.818305
			 0.178164 -0.580825 -0.794292
			-0.715739  0.004505 -0.698353
			-0.546846  0.201007 -0.812746
			-0.691178  0.711454 -0.126909
			-0.670044  0.735216  0.102458
			-0.524343  0.617447  0.586365
			-0.730140  0.632222  0.259212
			-0.698462  0.436552  0.567075
			 0.117347  0.506642  0.854133
			-0.258017  0.642647  0.721410
			-0.057228  0.456274  0.887998
			 0.162690 -0.194963  0.967224
			 0.261263  0.272868  0.925897
			-0.194194  0.593081  0.781373
			-0.460476  0.307700  0.832636
			 0.494185  0.087819  0.864910
			 0.393353  0.061412  0.917334
			 0.988338 -0.043511  0.145928
			 0.912934 -0.401350  0.073961
			 0.716562 -0.553261 -0.424784
			 0.595786 -0.772637 -0.219251
			 0.441785 -0.811440 -0.382610
			 0.723170 -0.689614  0.038179
			 0.203841 -0.745359 -0.634734
			-0.480169 -0.524402 -0.703164
			-0.329711 -0.571568 -0.751399
			-0.703516  0.366012 -0.609180
			-0.758754 -0.314233 -0.570570
			-0.524070 -0.522139 -0.672846
			-0.838695  0.527692 -0.134657
			-0.622442  0.351638  0.699226
			-0.579897  0.407961  0.705186
			-0.547746  0.172932  0.818577
			-0.963933  0.263675  0.036171
			-0.332189  0.496810  0.801767
			 0.006840  0.021810  0.999739
			 0.294301 -0.281850  0.913207
			-0.159486  0.109126  0.981150
			 0.526537 -0.323325  0.786269
			 0.772278 -0.627563  0.098753
			 0.495911 -0.806853  0.321032
			 0.328864 -0.860724 -0.388591
			-0.196152 -0.883437 -0.425515
			-0.541829 -0.792619 -0.279601
			 0.022474 -0.918566 -0.394628
			-0.612140 -0.626609 -0.482334
			-0.749696 -0.616371 -0.240923
			-0.787534 -0.575086 -0.221510
			-0.905431  0.095982 -0.413499
			-0.715587  0.095463  0.691970
			-0.711080 -0.220667  0.667587
			-0.944925 -0.090967  0.314391
			 0.276743 -0.287395  0.916961
			-0.487081 -0.561206  0.669178
			-0.439756 -0.314294  0.841328
			 0.835926 -0.339266  0.431424
			 0.764704 -0.520964  0.379242
			 0.401879 -0.827917  0.391212
			 0.421922 -0.859660  0.288040
			 0.238830 -0.924385 -0.297445
			 0.338201 -0.645632  0.684674
			-0.117008 -0.983027 -0.141305
			 0.111197 -0.993489 -0.024781
			-0.014863 -0.989329 -0.144938
			-0.615615 -0.720722 -0.318712
			-0.798863 -0.598784  0.057228
			-0.932562 -0.291450 -0.213040
			-0.709453 -0.108795  0.696305
			-0.780908 -0.326357  0.532610
			-0.473277 -0.732119  0.489909
			-0.101902 -0.821028  0.561720
			 0.039021 -0.816948  0.575390
			 0.130809 -0.825211  0.549469
			 0.153561 -0.667215  0.728864
			 0.075000 -0.919836  0.385068
			 0.125232 -0.638989  0.758953
			 0.552596 -0.589985  0.588690
			 0.556951 -0.603185  0.570941
			 0.339472 -0.816440  0.467102
			-0.446324 -0.884665  0.134765
			-0.685043 -0.513182  0.517069
			-0.726955 -0.678820 -0.103628
			-0.712927 -0.630805  0.306302
			-0.618164 -0.654139  0.435862
			-0.871499 -0.488460 -0.043550
			-0.764418 -0.599520  0.237152
			-0.895874 -0.436251  0.084233
			-0.010399 -0.765711  0.643101
			 0.219962 -0.632867  0.742359
			 0.060211 -0.504335  0.861407
			-0.057748 -0.612653  0.788239
			-0.168630 -0.723289  0.669640
			 0.053902 -0.529430  0.846639
			-0.612076 -0.531200  0.585824
			-0.411186 -0.729188  0.547002
			-0.243989 -0.903618  0.352056
			-0.115854 -0.968259  0.221479
			-0.040288 -0.927230  0.372318
			 0.014776 -0.804962  0.593143
			 0.034764 -0.254472  0.966455
			 0.065712 -0.227894  0.971466
			-0.119674 -0.463848  0.877795
			-0.450102 -0.149501  0.880373
			-0.483716 -0.416848  0.769582
			-0.372561 -0.274176  0.886581
			-0.350356 -0.544816  0.761857
			-0.268562 -0.736910  0.620354
			-0.086714 -0.761993  0.641753
			-0.029176 -0.801142  0.597763
			-0.162256 -0.626087  0.762685
			-0.141938 -0.040933  0.989029
			-0.408853 -0.165370  0.897492
			-0.326225 -0.441234  0.835996
			-0.105466  0.080564  0.991154
			-0.238348 -0.695233  0.678116
			-0.091474 -0.022271  0.995558
			-0.257446 -0.255437  0.931919
			-0.112597  0.081679  0.990278
		</DataArray>
	</PointData>
	<Points>
		<DataArray type="Float32" NumberOfComponents="3" format="ascii">
			 0.023971 -0.070760 -0.063765
			 0.023557 -0.070889 -0.064057
			 0.023624 -0.070507 -0.063473
			 0.023979 -0.070493 -0.063013
			 0.024345 -0.070709 -0.063358
			 0.024436 -0.071292 -0.063817
			 0.022811 -0.070484 -0.063327
			 0.022938 -0.070408 -0.062789
			 0.023205 -0.070646 -0.063752
			 0.023794 -0.070520 -0.062157
			 0.023482 -0.070448 -0.062742
			 0.024504 -0.070657 -0.062460
			 0.022695 -0.071300 -0.064095
			 0.023715 -0.071430 -0.064242
			 0.024790 -0.071703 -0.063581
			 0.024612 -0.070811 -0.062942
			 0.022293 -0.070508 -0.062855
			 0.021784 -0.070601 -0.062531
			 0.022287 -0.070481 -0.062285
			 0.022946 -0.070654 -0.061457
			 0.022074 -0.071412 -0.063921
			 0.021967 -0.070861 -0.063415
			 0.023786 -0.070671 -0.061431
			 0.024512 -0.070815 -0.061581
			 0.023986 -0.070915 -0.060774
			 0.023418 -0.071873 -0.064126
			 0.024354 -0.071791 -0.063907
			 0.025147 -0.071602 -0.063220
			 0.021178 -0.070964 -0.062435
			 0.021334 -0.070769 -0.061696
			 0.022119 -0.070571 -0.061723
			 0.022392 -0.070843 -0.060886
			 0.021734 -0.071907 -0.063847
			 0.021425 -0.070977 -0.062933
			 0.025361 -0.071528 -0.062030
			 0.024872 -0.071304 -0.060555
			 0.024679 -0.071818 -0.059303
			 0.024051 -0.071215 -0.060125
			 0.022579 -0.071866 -0.064087
			 0.025046 -0.072139 -0.063254
			 0.025342 -0.071817 -0.062751
			 0.020740 -0.071227 -0.062207
			 0.021447 -0.071032 -0.060767
			 0.020900 -0.071130 -0.061009
			 0.023040 -0.071132 -0.060365
			 0.022058 -0.071253 -0.060206
			 0.023238 -0.071572 -0.059548
			 0.021316 -0.071665 -0.063498
			 0.025488 -0.071965 -0.060912
			 0.025223 -0.071638 -0.060404
			 0.024189 -0.071711 -0.059300
			 0.024222 -0.072193 -0.058633
			 0.025173 -0.071822 -0.059811
			 0.024876 -0.072465 -0.058649
			 0.022933 -0.072468 -0.063635
			 0.024314 -0.072300 -0.063637
			 0.023339 -0.073031 -0.062849
			 0.023710 -0.072848 -0.063147
			 0.022333 -0.072355 -0.063728
			 0.025446 -0.072339 -0.062228
			 0.020810 -0.071619 -0.062516
			 0.020350 -0.071821 -0.061990
			 0.020544 -0.071220 -0.061737
			 0.020532 -0.071420 -0.060796
			 0.020522 -0.071807 -0.059999
			 0.022515 -0.071588 -0.059770
			 0.021441 -0.071462 -0.060003
			 0.021460 -0.072358 -0.063513
			 0.020979 -0.071785 -0.063143
			 0.025622 -0.072160 -0.061485
			 0.025435 -0.072156 -0.060309
			 0.024630 -0.072940 -0.057991
			 0.025264 -0.072172 -0.059403
			 0.024146 -0.072806 -0.058034
			 0.023495 -0.071804 -0.059099
			 0.021958 -0.072930 -0.063188
			 0.023652 -0.073423 -0.061961
			 0.022669 -0.073202 -0.062635
			 0.024265 -0.072862 -0.062991
			 0.024830 -0.072773 -0.062750
			 0.020450 -0.072445 -0.062166
			 0.020045 -0.071734 -0.061186
			 0.020097 -0.072186 -0.059873
			 0.022112 -0.071806 -0.059518
			 0.022960 -0.072196 -0.059017
			 0.020916 -0.072408 -0.063095
			 0.025528 -0.072648 -0.061225
			 0.025526 -0.072503 -0.060681
			 0.023716 -0.072094 -0.058709
			 0.025048 -0.072966 -0.058437
			 0.023781 -0.073431 -0.057528
			 0.024400 -0.073033 -0.062532
			 0.021579 -0.073109 -0.062892
			 0.022463 -0.074175 -0.061254
			 0.023452 -0.073900 -0.061291
			 0.022702 -0.073709 -0.061921
			 0.022286 -0.073412 -0.062364
			 0.024736 -0.073118 -0.061947
			 0.020677 -0.072434 -0.062639
			 0.019830 -0.072204 -0.060515
			 0.019847 -0.072604 -0.059721
			 0.020497 -0.072371 -0.059346
			 0.021189 -0.072383 -0.059144
			 0.022432 -0.072218 -0.059191
			 0.025132 -0.073151 -0.060753
			 0.025297 -0.072966 -0.060010
			 0.023161 -0.073047 -0.057833
			 0.022515 -0.072650 -0.058403
			 0.025322 -0.072711 -0.059255
			 0.024455 -0.073657 -0.057625
			 0.023427 -0.073591 -0.057211
			 0.021454 -0.073442 -0.062089
			 0.022256 -0.073862 -0.061622
			 0.024410 -0.073451 -0.060654
			 0.023886 -0.073745 -0.061042
			 0.022900 -0.074448 -0.060784
			 0.022250 -0.075143 -0.059871
			 0.022077 -0.074388 -0.060912
			 0.021876 -0.075328 -0.059577
			 0.021790 -0.074783 -0.060279
			 0.019975 -0.072494 -0.061247
			 0.020256 -0.072858 -0.061446
			 0.020617 -0.073037 -0.062026
			 0.020034 -0.072789 -0.059279
			 0.020642 -0.072772 -0.059063
			 0.021143 -0.072898 -0.058461
			 0.021780 -0.073236 -0.057431
			 0.021449 -0.073048 -0.057934
			 0.020890 -0.072971 -0.062442
			 0.024940 -0.073380 -0.059665
			 0.024767 -0.073567 -0.058988
			 0.022592 -0.073092 -0.057623
			 0.024897 -0.073550 -0.058384
			 0.024012 -0.073931 -0.057382
			 0.023065 -0.074347 -0.055946
			 0.023762 -0.074140 -0.056985
			 0.021630 -0.073674 -0.061666
			 0.024059 -0.074142 -0.059646
			 0.022818 -0.074923 -0.060079
			 0.023307 -0.074797 -0.059833
			 0.021049 -0.075352 -0.059294
			 0.021132 -0.075734 -0.058779
			 0.021925 -0.075803 -0.058831
			 0.021277 -0.074899 -0.059973
			 0.019826 -0.072851 -0.060487
			 0.020450 -0.073252 -0.061144
			 0.020859 -0.073334 -0.057785
			 0.020650 -0.073313 -0.058380
			 0.020942 -0.073973 -0.056056
			 0.024409 -0.073713 -0.059758
			 0.024348 -0.074032 -0.058544
			 0.022057 -0.073651 -0.056571
			 0.022716 -0.074609 -0.055072
			 0.022801 -0.075039 -0.054287
			 0.023610 -0.074695 -0.056364
			 0.023283 -0.074917 -0.055536
			 0.020637 -0.073727 -0.060374
			 0.021125 -0.074199 -0.060575
			 0.023632 -0.074979 -0.058777
			 0.022564 -0.075374 -0.059405
			 0.020885 -0.076063 -0.058248
			 0.022521 -0.076033 -0.058280
			 0.020160 -0.073418 -0.059709
			 0.020231 -0.073337 -0.059140
			 0.020426 -0.073835 -0.057204
			 0.020390 -0.073759 -0.057707
			 0.020618 -0.074381 -0.055033
			 0.020875 -0.073653 -0.056928
			 0.020297 -0.074356 -0.055448
			 0.021804 -0.074269 -0.055220
			 0.024270 -0.074185 -0.057968
			 0.022123 -0.074840 -0.054075
			 0.022947 -0.075334 -0.053761
			 0.023258 -0.075572 -0.054401
			 0.023962 -0.074609 -0.057291
			 0.023624 -0.075306 -0.056283
			 0.020630 -0.074251 -0.059777
			 0.023945 -0.074683 -0.057902
			 0.022881 -0.075738 -0.058493
			 0.020342 -0.074743 -0.059035
			 0.020437 -0.075563 -0.058543
			 0.021323 -0.076442 -0.057860
			 0.021978 -0.076272 -0.058081
			 0.020162 -0.076603 -0.057236
			 0.022283 -0.076490 -0.057608
			 0.021786 -0.076717 -0.057385
			 0.020309 -0.073779 -0.059397
			 0.020315 -0.073701 -0.058783
			 0.020053 -0.074250 -0.057640
			 0.020184 -0.074255 -0.055954
			 0.019753 -0.074539 -0.056413
			 0.019998 -0.074658 -0.054672
			 0.020746 -0.074816 -0.053918
			 0.021453 -0.074477 -0.054643
			 0.019766 -0.074521 -0.055737
			 0.019474 -0.074750 -0.055288
			 0.023734 -0.075154 -0.057232
			 0.021759 -0.075087 -0.053377
			 0.022499 -0.075208 -0.053548
			 0.023379 -0.075689 -0.054986
			 0.023439 -0.076168 -0.054130
			 0.023447 -0.075891 -0.055508
			 0.023599 -0.075354 -0.057979
			 0.023010 -0.075905 -0.058034
			 0.019978 -0.075428 -0.058026
			 0.020833 -0.077389 -0.056543
			 0.019900 -0.076124 -0.057493
			 0.019494 -0.076439 -0.056759
			 0.019719 -0.076962 -0.056547
			 0.022573 -0.076842 -0.056693
			 0.021798 -0.077202 -0.056657
			 0.020089 -0.074351 -0.058256
			 0.019405 -0.074896 -0.056138
			 0.019552 -0.074909 -0.054453
			 0.019941 -0.075236 -0.053491
			 0.020781 -0.075383 -0.052800
			 0.021254 -0.075221 -0.053082
			 0.018995 -0.075085 -0.055306
			 0.019034 -0.075078 -0.054741
			 0.022303 -0.075660 -0.052558
			 0.023426 -0.076444 -0.054870
			 0.023453 -0.076025 -0.053594
			 0.023489 -0.076875 -0.054245
			 0.023322 -0.076474 -0.055475
			 0.023317 -0.076182 -0.056507
			 0.021432 -0.077695 -0.056050
			 0.020820 -0.077935 -0.055873
			 0.019995 -0.077425 -0.056274
			 0.019181 -0.076473 -0.056329
			 0.020015 -0.078373 -0.055356
			 0.019403 -0.078025 -0.055425
			 0.019266 -0.077333 -0.055872
			 0.022863 -0.076903 -0.056105
			 0.019572 -0.075617 -0.057197
			 0.019310 -0.075405 -0.056561
			 0.019139 -0.075281 -0.053767
			 0.019255 -0.075441 -0.053307
			 0.018786 -0.075831 -0.052650
			 0.020479 -0.076015 -0.051733
			 0.021233 -0.075636 -0.052312
			 0.022834 -0.075653 -0.052941
			 0.022470 -0.075918 -0.052157
			 0.021457 -0.076104 -0.051509
			 0.023505 -0.077311 -0.053940
			 0.023638 -0.076461 -0.053222
			 0.023415 -0.076010 -0.053046
			 0.023176 -0.077946 -0.054070
			 0.022916 -0.077321 -0.055314
			 0.021361 -0.078525 -0.055068
			 0.020450 -0.078154 -0.055603
			 0.018869 -0.076691 -0.055881
			 0.020621 -0.078794 -0.054950
			 0.020050 -0.078799 -0.054968
			 0.019031 -0.078670 -0.054808
			 0.018407 -0.077925 -0.054943
			 0.022360 -0.077600 -0.055698
			 0.022506 -0.077776 -0.055240
			 0.022031 -0.078198 -0.055162
			 0.018871 -0.075763 -0.055872
			 0.018415 -0.075549 -0.054760
			 0.018684 -0.075528 -0.053546
			 0.018541 -0.075496 -0.054113
			 0.018988 -0.075988 -0.052163
			 0.018137 -0.076121 -0.052521
			 0.020656 -0.076246 -0.051309
			 0.023316 -0.076312 -0.052209
			 0.022286 -0.076312 -0.051457
			 0.023760 -0.077072 -0.053316
			 0.024110 -0.077068 -0.052841
			 0.022461 -0.078330 -0.054585
			 0.023679 -0.077927 -0.053356
			 0.023042 -0.079114 -0.053369
			 0.021070 -0.079012 -0.054680
			 0.018390 -0.076471 -0.055468
			 0.019913 -0.079491 -0.054450
			 0.018381 -0.079278 -0.054351
			 0.018411 -0.078801 -0.054523
			 0.017828 -0.078085 -0.054692
			 0.017863 -0.077083 -0.055002
			 0.018008 -0.076569 -0.055109
			 0.018023 -0.075809 -0.054213
			 0.017884 -0.075974 -0.053583
			 0.018476 -0.075777 -0.053129
			 0.017458 -0.076235 -0.053366
			 0.017566 -0.076496 -0.052435
			 0.021360 -0.076552 -0.050785
			 0.020395 -0.076703 -0.050852
			 0.020029 -0.076314 -0.051408
			 0.020818 -0.076981 -0.050459
			 0.018910 -0.076527 -0.051504
			 0.023722 -0.076471 -0.052559
			 0.023457 -0.077117 -0.051143
			 0.023803 -0.076874 -0.051949
			 0.022437 -0.076580 -0.051034
			 0.021860 -0.076697 -0.050747
			 0.024222 -0.078122 -0.052781
			 0.023474 -0.078959 -0.053117
			 0.022767 -0.080113 -0.053120
			 0.021739 -0.078816 -0.054629
			 0.021521 -0.079235 -0.054367
			 0.019039 -0.079984 -0.054153
			 0.019996 -0.080264 -0.053984
			 0.021230 -0.080143 -0.053859
			 0.018533 -0.079899 -0.054156
			 0.017789 -0.079317 -0.054334
			 0.017450 -0.077314 -0.054755
			 0.017202 -0.078512 -0.054511
			 0.017158 -0.077749 -0.054639
			 0.022398 -0.079303 -0.053798
			 0.017564 -0.076082 -0.054314
			 0.017713 -0.076677 -0.051981
			 0.016925 -0.076732 -0.052813
			 0.019395 -0.076874 -0.051071
			 0.021098 -0.077453 -0.050105
			 0.018381 -0.076922 -0.051421
			 0.018859 -0.077250 -0.050981
			 0.024172 -0.077631 -0.051538
			 0.023990 -0.077989 -0.051016
			 0.023380 -0.077741 -0.050550
			 0.022749 -0.077000 -0.050716
			 0.024291 -0.077342 -0.052165
			 0.023950 -0.078907 -0.052777
			 0.022319 -0.080308 -0.053316
			 0.023150 -0.080045 -0.052739
			 0.021937 -0.079526 -0.053953
			 0.019585 -0.080918 -0.053613
			 0.018572 -0.080719 -0.053763
			 0.020337 -0.080634 -0.053716
			 0.021866 -0.080690 -0.053298
			 0.021886 -0.080051 -0.053680
			 0.020881 -0.080688 -0.053594
			 0.016699 -0.077630 -0.054476
			 0.017410 -0.076581 -0.054709
			 0.017025 -0.076488 -0.053859
			 0.016745 -0.076725 -0.053411
			 0.017237 -0.076929 -0.052086
			 0.016474 -0.077167 -0.052736
			 0.016597 -0.077415 -0.052182
			 0.022119 -0.077154 -0.050397
			 0.019214 -0.077542 -0.050552
			 0.020490 -0.077961 -0.049844
			 0.020988 -0.078495 -0.049657
			 0.022246 -0.077839 -0.050058
			 0.020023 -0.077862 -0.050007
			 0.018485 -0.078315 -0.050273
			 0.023638 -0.078170 -0.050584
			 0.023132 -0.078141 -0.050289
			 0.024428 -0.078136 -0.052192
			 0.024241 -0.078887 -0.052282
			 0.023623 -0.079375 -0.052743
			 0.022555 -0.080766 -0.052599
			 0.022133 -0.080926 -0.052851
			 0.023056 -0.080459 -0.052210
			 0.021263 -0.081049 -0.053208
			 0.017526 -0.079747 -0.054031
			 0.018102 -0.080138 -0.054004
			 0.016803 -0.077086 -0.054453
			 0.016654 -0.078530 -0.054291
			 0.017059 -0.079189 -0.054130
			 0.016426 -0.077122 -0.053815
			 0.017116 -0.077593 -0.051610
			 0.017490 -0.077967 -0.051076
			 0.017877 -0.078316 -0.050578
			 0.016112 -0.077542 -0.053137
			 0.019030 -0.078213 -0.050029
			 0.020451 -0.078465 -0.049602
			 0.021854 -0.078436 -0.049836
			 0.019570 -0.078488 -0.049713
			 0.023496 -0.078787 -0.050501
			 0.023638 -0.079720 -0.052010
			 0.022723 -0.080788 -0.052017
			 0.021538 -0.081289 -0.052763
			 0.019029 -0.081409 -0.053062
			 0.018340 -0.081178 -0.053089
			 0.019557 -0.081483 -0.052960
			 0.017717 -0.080336 -0.053724
			 0.017184 -0.079920 -0.053561
			 0.016608 -0.079117 -0.053660
			 0.016181 -0.077695 -0.053786
			 0.016539 -0.077955 -0.051888
			 0.017454 -0.078463 -0.050845
			 0.016089 -0.078067 -0.052529
			 0.022547 -0.078606 -0.050093
			 0.018168 -0.078765 -0.050259
			 0.018776 -0.078766 -0.049945
			 0.024059 -0.078633 -0.051039
			 0.023958 -0.079151 -0.051447
			 0.022241 -0.081061 -0.052062
			 0.021794 -0.081334 -0.052171
			 0.020981 -0.081543 -0.052579
			 0.022664 -0.080576 -0.051471
			 0.019200 -0.081629 -0.052632
			 0.020316 -0.081723 -0.052370
			 0.019746 -0.081699 -0.052522
			 0.018007 -0.080781 -0.053434
			 0.017016 -0.079901 -0.052821
			 0.016197 -0.078325 -0.053719
			 0.017091 -0.078489 -0.051287
			 0.016458 -0.078451 -0.051980
			 0.017776 -0.078852 -0.050614
			 0.019456 -0.079051 -0.049709
			 0.020592 -0.079035 -0.049756
			 0.021547 -0.078867 -0.049857
			 0.022025 -0.078949 -0.050073
			 0.021081 -0.079097 -0.050002
			 0.022720 -0.079117 -0.050333
			 0.023619 -0.079308 -0.051051
			 0.023082 -0.080205 -0.051455
			 0.021349 -0.081532 -0.052012
			 0.018712 -0.081592 -0.052359
			 0.018030 -0.080940 -0.052449
			 0.017453 -0.080401 -0.053244
			 0.017352 -0.080264 -0.052628
			 0.017151 -0.079809 -0.052306
			 0.016445 -0.079066 -0.053042
			 0.016622 -0.079316 -0.052520
			 0.016220 -0.078658 -0.052653
			 0.020015 -0.079060 -0.049707
			 0.022824 -0.079673 -0.050830
			 0.021947 -0.080789 -0.051474