<?xml version="1.0"?>
<VTKFile type="PolyData" version="0.1" byte_order="LittleEndian" compressor="vtkZLibDataCompressor">
	<PolyData>
		<Piece NumberOfPoints="1877" NumberOfVerts="0" NumberOfLines="0" NumberOfStrips="0" NumberOfPolys="3770">
		<PointData Normals="Normals">
		<DataArray type="Float32" Name="Normals" NumberOfComponents="3" format="ascii">
			 0.897625  0.401045  0.182846
			 0.876394  0.470429  0.103103
			 0.872055  0.485433  0.062241
			 0.914586  0.381291  0.134725
			 0.900887  0.399203  0.170411
			 0.897216  0.322466  0.301694
			 0.904095  0.358496  0.232579
			 0.912404  0.338694  0.229795
			 0.874948  0.483406 -0.028012
			 0.893290  0.444957  0.063611
			 0.879062  0.473306 -0.056853
			 0.896152  0.441994  0.039399
			 0.896518  0.440806  0.044114
			 0.915188  0.327922  0.234303
			 0.915056  0.402550  0.025026
			 0.904601  0.336814  0.261254
			 0.898288  0.300716  0.320389
			 0.916118  0.398695  0.042082
			 0.901824  0.428877  0.052713
			 0.884766  0.437014  0.161890
			 0.899797  0.369163  0.232560
			 0.885564  0.262340  0.383346
			 0.892845  0.246945  0.376626
			 0.902845  0.275674  0.329962
			 0.868547  0.489333 -0.078604
			 0.870646  0.489786 -0.045653
			 0.887691  0.457372  0.053069
			 0.891872  0.401796  0.207664
			 0.853210  0.503976 -0.134317
			 0.869713  0.473502 -0.139264
			 0.899364  0.435406 -0.039576
			 0.879638  0.471156 -0.065187
			 0.877382  0.479621  0.012818
			 0.875968  0.480494 -0.042496
			 0.879829  0.471488  0.060003
			 0.903849  0.265333  0.335641
			 0.892459  0.296659  0.339867
			 0.909184  0.281593  0.306741
			 0.885257  0.263904  0.382982
			 0.887362  0.362596  0.284804
			 0.873994  0.212767  0.436881
			 0.866993  0.198659  0.457010
			 0.885264  0.461898 -0.054388
			 0.871263  0.489475 -0.036260
			 0.868100  0.489974 -0.079542
			 0.858824  0.422115  0.290242
			 0.807811  0.586647  0.057325
			 0.830247  0.540774  0.135103
			 0.891337  0.336251  0.304063
			 0.813338  0.176070  0.554510
			 0.830699  0.231482  0.506316
			 0.868213  0.289454  0.403018
			 0.872928  0.154337  0.462792
			 0.818403  0.120184  0.561936
			 0.897999  0.256689  0.357363
			 0.877876  0.190214  0.439491
			 0.833398  0.527870 -0.163710
			 0.874840  0.482985 -0.037149
			 0.889751  0.434216  0.140709
			 0.879081  0.370279  0.300183
			 0.885664  0.416782  0.204677
			 0.793786  0.546629 -0.266645
			 0.816271  0.519813 -0.251984
			 0.809831  0.501642 -0.304186
			 0.792044  0.507255 -0.339645
			 0.869354  0.475508 -0.134598
			 0.810216  0.541438 -0.224488
			 0.852101  0.512733 -0.105014
			 0.876188  0.481423  0.022966
			 0.887080  0.461606 -0.003089
			 0.881584  0.466929  0.069190
			 0.830444  0.142778  0.538495
			 0.807188  0.242009  0.538404
			 0.851766  0.287760  0.437823
			 0.797807  0.181422  0.574970
			 0.823227  0.339047  0.455351
			 0.735258  0.087433  0.672124
			 0.815141  0.035531  0.578172
			 0.792336  0.076452  0.605276
			 0.848393  0.527645 -0.042660
			 0.868884  0.494851 -0.012751
			 0.752130  0.526487  0.396373
			 0.736984  0.601366  0.308567
			 0.807186  0.590178  0.011828
			 0.779156  0.620214  0.090835
			 0.790558  0.610724  0.045097
			 0.823516  0.534076  0.191267
			 0.809126  0.581639  0.083733
			 0.679038  0.054064  0.732109
			 0.591803 -0.077009  0.802396
			 0.873277  0.319994  0.367411
			 0.875860  0.302533  0.375956
			 0.826479  0.224922  0.516084
			 0.821401  0.081839  0.564449
			 0.620240 -0.081585  0.780158
			 0.805742  0.066687  0.588500
			 0.752051  0.539132 -0.379152
			 0.776339  0.547032 -0.313135
			 0.889262  0.437884  0.132180
			 0.873773  0.486333 -0.000174
			 0.801782  0.550999 -0.231400
			 0.891127  0.354045  0.283805
			 0.592917  0.555857 -0.582642
			 0.646239  0.524363 -0.554453
			 0.748951  0.503455 -0.430820
			 0.612745  0.483837 -0.624857
			 0.697988  0.542939 -0.466936
			 0.806800  0.563996 -0.176015
			 0.610521  0.686369 -0.395173
			 0.834357  0.544041 -0.088702
			 0.840415  0.541901  0.006835
			 0.733153  0.165067  0.659727
			 0.685283  0.437410  0.582288
			 0.625832  0.256759  0.736485
			 0.610593 -0.060566  0.789625
			 0.590011 -0.042356  0.806283
			 0.646710  0.003422  0.762728
			 0.654763 -0.127404  0.745019
			 0.642930 -0.147185  0.751650
			 0.776558  0.616677 -0.129106
			 0.742394  0.645252 -0.180278
			 0.555457  0.612535  0.562378
			 0.527261  0.726178  0.441205
			 0.695421  0.694023  0.186338
			 0.504703  0.790618  0.346696
			 0.762216  0.646364  0.035202
			 0.755895  0.651610 -0.063462
			 0.798177  0.602346  0.009666
			 0.715316  0.698801 -0.000217
			 0.787773  0.615740  0.016689
			 0.725774  0.054418  0.685777
			 0.798188  0.142017  0.585429
			 0.441591 -0.107106  0.890801
			 0.626908 -0.030001  0.778515
			 0.885554  0.330470  0.326472
			 0.883174  0.335634  0.327648
			 0.878098  0.318742  0.356857
			 0.817869  0.199290  0.539790
			 0.757455 -0.047116  0.651185
			 0.511723 -0.216274  0.831484
			 0.696014 -0.106862  0.710032
			 0.612197  0.574227 -0.543580
			 0.481707  0.562117 -0.672296
			 0.890397  0.430893  0.146711
			 0.872043  0.489238 -0.013703
			 0.835764  0.522828 -0.167777
			 0.686775  0.560007 -0.463391
			 0.677450  0.568013 -0.467358
			 0.882242  0.355419  0.308750
			 0.460274  0.527154 -0.714323
			 0.376485  0.398414 -0.836376
			 0.608631  0.454944 -0.650072
			 0.586820  0.455358 -0.669546
			 0.633875  0.591946 -0.497798
			 0.640834  0.692434 -0.331462
			 0.473699  0.710159 -0.520848
			 0.664849  0.159114  0.729834
			 0.516195  0.447460  0.730289
			 0.537758  0.214384  0.815387
			 0.303831  0.211269  0.929006
			 0.408240  0.306207  0.859987
			 0.492113 -0.095604  0.865266
			 0.617718 -0.111128  0.778508
			 0.505683 -0.232348  0.830842
			 0.679053  0.074421  0.730307
			 0.575816  0.052755  0.815876
			 0.399780 -0.362563  0.841858
			 0.381888 -0.346607  0.856753
			 0.357484 -0.324669  0.875669
			 0.652059  0.702791 -0.284436
			 0.531839  0.770568 -0.351243
			 0.611085  0.763476 -0.208996
			 0.343064  0.747732  0.568510
			 0.624872  0.771852  0.117388
			 0.369561  0.879677  0.299322
			 0.298155  0.852462  0.429432
			 0.677060  0.731779 -0.078035
			 0.669570  0.740763 -0.054286
			 0.475653  0.877049  0.067375
			 0.291505 -0.269681  0.917767
			 0.375330 -0.241811  0.894793
			 0.410475 -0.118163  0.904184
			 0.620158 -0.044347  0.783223
			 0.754405  0.098149  0.649030
			 0.889738  0.366279  0.272409
			 0.883814  0.389707  0.258847
			 0.888139  0.418886  0.189058
			 0.856524  0.282303  0.432055
			 0.804732  0.207192  0.556307
			 0.741896  0.091499  0.664242
			 0.782033  0.139361  0.607456
			 0.619500 -0.207895  0.756967
			 0.503418 -0.147486  0.851363
			 0.337865  0.559710 -0.756685
			 0.217351  0.510137 -0.832177
			 0.313084  0.484955 -0.816576
			 0.890522  0.454492  0.020201
			 0.898479  0.416734  0.138087
			 0.875569  0.477336 -0.074362
			 0.372146  0.557044 -0.742435
			 0.349921  0.547623 -0.760042
			 0.686778  0.549481 -0.475822
			 0.791020  0.515814 -0.328973
			 0.844363  0.494353 -0.206559
			 0.208121  0.438301 -0.874402
			 0.183095  0.410335 -0.893365
			 0.532399  0.570582 -0.625290
			 0.322396  0.800855 -0.504671
			 0.305482  0.799295 -0.517502
			 0.347935  0.661817 -0.664033
			 0.309386  0.772997 -0.553856
			 0.534561  0.126837  0.835558
			 0.297484  0.114141  0.947879
			 0.392643  0.590714  0.704903
			 0.146664  0.170659  0.974354
			 0.378536 -0.232564  0.895893
			 0.339378 -0.359314  0.869320
			 0.559622 -0.159293  0.813295
			 0.264925 -0.470927  0.841453
			 0.326763 -0.336240  0.883271
			 0.531134 -0.057374  0.845343
			 0.190881 -0.510320  0.838533
			 0.255398 -0.460069  0.850358
			 0.184216 -0.394178  0.900382
			 0.131826 -0.484921  0.864566
			 0.109458 -0.449543  0.886527
			 0.178724 -0.489494  0.853495
			 0.300986  0.850796 -0.430760
			 0.432300  0.832216 -0.347178
			 0.549240  0.821932 -0.150873
			 0.260928  0.763119  0.591241
			 0.206794  0.842543  0.497350
			 0.395067  0.902384  0.172120
			 0.456709  0.889596 -0.006032
			 0.275609  0.941792  0.192530
			 0.155691 -0.264688  0.951683
			-0.097136 -0.378608  0.920446
			-0.015370 -0.440691  0.897527
			 0.737049  0.040072  0.674650
			 0.706025  0.008605  0.708135
			 0.517990 -0.164403  0.839439
			 0.572396 -0.116582  0.811647
			 0.410891 -0.175632  0.894607
			 0.171272 -0.256465  0.951258
			 0.055068 -0.287003  0.956345
			 0.881663  0.459672  0.106638
			 0.896412  0.419355  0.143479
			 0.877628  0.319648  0.357204
			 0.881365  0.467429  0.068600
			 0.831354  0.224332  0.508454
			 0.833385  0.181753  0.521953
			 0.641164 -0.018176  0.767188
			 0.606751 -0.043730  0.793688
			 0.793683  0.101908  0.599735
			 0.609487 -0.010615  0.792725
			 0.652054  0.026152  0.757721
			 0.190391  0.464003 -0.865132
			 0.022995  0.427864 -0.903551
			 0.119149  0.469097 -0.875073
			 0.188513  0.449433 -0.873197
			 0.884368  0.465570 -0.033736
			 0.320151  0.567002 -0.758954
			 0.733658  0.550322 -0.398612
			 0.470577  0.569932 -0.673598
			 0.826280  0.529665 -0.191614
			 0.807584  0.529713 -0.259252
			 0.058471  0.302044 -0.951499
			 0.158538  0.259753 -0.952572
			 0.257269  0.245316 -0.934683
			 0.431491  0.336560 -0.836984
			 0.465025  0.296532 -0.834159
			 0.463086  0.382011 -0.799762
			 0.418302  0.544421 -0.727069
			 0.318750  0.832350 -0.453423
			 0.252729  0.410677 -0.876055
			 0.266944  0.695295 -0.667313
			 0.270390  0.773235 -0.573582
			 0.287128  0.025686  0.957548
			 0.036625  0.109905  0.993267
			-0.148657  0.184355  0.971553
			 0.337384  0.348749  0.874383
			 0.104662  0.456438  0.883578
			 0.170437  0.709888  0.683381
			 0.137449 -0.590038  0.795590
			 0.340958 -0.184545  0.921787
			 0.142871 -0.572727  0.807200
			 0.146872 -0.604154  0.783216
			 0.142941 -0.513004  0.846401
			 0.595444 -0.001315  0.803396
			 0.050741 -0.542002  0.838844
			-0.034811 -0.506036  0.861809
			-0.021453 -0.551277  0.834047
			 0.083280 -0.611225  0.787064
			 0.398604  0.779242 -0.483629
			 0.499581  0.766889 -0.402866
			 0.401982  0.902618 -0.153916
			 0.372090  0.895447 -0.244383
			 0.134324  0.936294  0.324517
			-0.032908  0.957800  0.285545
			 0.240664  0.894325  0.377178
			-0.019678  0.747154  0.664360
			-0.053915  0.867574  0.494378
			 0.300276  0.953790 -0.010870
			 0.260059  0.956984  0.128651
			 0.062246  0.997791 -0.023197
			-0.195263 -0.408871  0.891458
			-0.133038 -0.435835  0.890140
			-0.319051 -0.468009  0.824120
			-0.221260 -0.516053  0.827486
			 0.179728 -0.364165  0.913828
			 0.328016 -0.246670  0.911899
			 0.469605 -0.131294  0.873059
			 0.195939 -0.368816  0.908616
			 0.028166 -0.363201  0.931285
			 0.883572  0.467558  0.026281
			 0.900037  0.393367  0.187604
			 0.893373  0.441611  0.082858
			 0.890345  0.346475  0.295365
			 0.858504  0.285329  0.426097
			 0.862412  0.497877 -0.091454
			 0.790063  0.184921  0.584470
			 0.811509  0.241260  0.532209
			 0.369459 -0.213457  0.904398
			 0.507990 -0.093526  0.856271
			 0.672466  0.019183  0.739880
			 0.447089 -0.170586  0.878073
			 0.095617  0.414770 -0.904888
			-0.063215  0.377314 -0.923925
			 0.039989  0.461473 -0.886253
			 0.008221  0.421415 -0.906831
			-0.049545  0.367354 -0.928761
			 0.139917  0.508812 -0.849431
			 0.681904  0.556312 -0.474894
			 0.775320  0.548274 -0.313489
			 0.591766  0.570747 -0.569263
			 0.515594  0.568576 -0.641003
			 0.809365  0.534918 -0.242467
			 0.166271  0.445189 -0.879864
			 0.084462  0.359024 -0.929499
			-0.063009  0.190556 -0.979652
			 0.141964  0.103650 -0.984430
			 0.346490  0.207500 -0.914816
			 0.385953  0.191535 -0.902416
			 0.362951  0.220788 -0.905273
			 0.275838  0.170354 -0.945988
			 0.350363  0.808109 -0.473503
			 0.351297  0.761054 -0.545332
			 0.426575  0.782436 -0.453682
			 0.197797  0.134545 -0.970966
			 0.116455  0.326185 -0.938105
			 0.017216  0.164431 -0.986238
			 0.129463  0.076825 -0.988604
			 0.099109  0.484532 -0.869141
			 0.167440  0.636896 -0.752547
			 0.131530  0.729085 -0.671665
			 0.256811  0.735708 -0.626723
			 0.319777 -0.079663  0.944138
			 0.090537 -0.105608  0.990278
			 0.039580  0.018001  0.999054
			 0.013570  0.108941  0.993956
			 0.018614  0.116471  0.993020
			 0.131284  0.251551  0.958899
			 0.048505  0.264446  0.963180
			-0.143649  0.615571  0.774879
			 0.156834 -0.648420  0.744953
			 0.194148 -0.138424  0.971157
			 0.183740 -0.600769  0.778021
			 0.115683 -0.544448  0.830779
			 0.107355 -0.333159  0.936739
			 0.070275 -0.583067  0.809379
			-0.195561 -0.608503  0.769077
			-0.055775 -0.644887  0.762240
			 0.208411 -0.612190  0.762751
			 0.454100  0.759930 -0.465080
			 0.203113  0.870294 -0.448701
			 0.274369  0.900534 -0.337283
			 0.367507  0.771439 -0.519443
			 0.237559  0.962472 -0.131197
			-0.117153  0.984567  0.130009
			 0.198051  0.948554  0.247025
			 0.080012  0.987808  0.133540
			 0.052852  0.705956  0.706281
			-0.166226  0.853292  0.494228
			-0.079371  0.984718 -0.155016
			-0.293605 -0.487998  0.821982
			-0.404517 -0.495327  0.768777
			-0.411965 -0.473593  0.778457
			-0.362796 -0.552738  0.750240
			-0.279466 -0.560256  0.779752
			 0.138646 -0.358619  0.923130
			 0.338863 -0.201266  0.919056
			 0.452773 -0.138706  0.880771
			 0.850879  0.516794 -0.094491
			 0.845831  0.515197 -0.138352
			 0.903406  0.405133  0.140447
			 0.893961  0.324944  0.308619
			 0.857508  0.251591  0.448756
			 0.784513  0.199884  0.587014
			 0.237449 -0.248681  0.939029
			-0.018362 -0.397391  0.917466
			 0.168907 -0.346011  0.922901
			 0.423331 -0.178117  0.888293
			 0.656055  0.063891  0.752004
			 0.188719 -0.263885  0.945912
			 0.395289 -0.156390  0.905146
			 0.455767 -0.168233  0.874056
			-0.020068  0.338024 -0.940924
			-0.154400  0.340838 -0.927356
			-0.173712  0.274230 -0.945845
			-0.112524  0.426477 -0.897472
			-0.121724  0.399379 -0.908669
			-0.214890  0.297121 -0.930345
			 0.144063  0.523301 -0.839882
			 0.755054  0.551695 -0.354296
			 0.495188  0.571295 -0.654531
			 0.704657  0.562446 -0.432565
			 0.314175  0.550280 -0.773618
			 0.798804  0.542292 -0.260445
			-0.030967  0.214089 -0.976323
			-0.105189  0.200567 -0.974016
			-0.151003  0.093718 -0.984081
			-0.141511  0.068502 -0.987564
			-0.073897  0.025817 -0.996932
			 0.043523 -0.021078 -0.998830
			 0.218545  0.012155 -0.975751
			 0.418080  0.740268 -0.526509
			 0.149129 -0.093867 -0.984352
			-0.020461  0.400398 -0.916113
			 0.036424  0.605487 -0.795021
			-0.043549  0.643396 -0.764294
			-0.012748  0.703836 -0.710248
			 0.056988  0.783882 -0.618289
			 0.063563  0.737373 -0.672489
			 0.083823 -0.238832  0.967436
			 0.203273 -0.050605  0.977813
			 0.154020  0.085089  0.984397
			 0.248710  0.208908  0.945781
			-0.014087  0.449976  0.892930
			-0.027257  0.251743  0.967410
			 0.298698 -0.571672  0.764180
			 0.174458 -0.472973  0.863632
			 0.263924 -0.553824  0.789698
			 0.242118 -0.597572  0.764386
			 0.071435 -0.668302  0.740452
			-0.016876 -0.645458  0.763609
			-0.125753 -0.628568  0.767521
			-0.289762 -0.561174  0.775320
			 0.061439 -0.687404  0.723672
			 0.212902 -0.658721  0.721637
			-0.049908  0.972342 -0.228166
			-0.342140  0.939454 -0.019117
			-0.498778  0.863250  0.077593
			-0.134830  0.746837  0.651195
			-0.328619  0.925011 -0.190696
			-0.369662  0.910359 -0.186002
			-0.322854  0.940600 -0.105060
			-0.458382 -0.534822  0.709825
			-0.284438 -0.506236  0.814138
			-0.421927 -0.525136  0.739060
			-0.476878 -0.522743  0.706631
			-0.286381 -0.650914  0.703062
			-0.378635 -0.582521  0.719240
			-0.096442 -0.468841  0.878002
			-0.135785 -0.478357  0.867604
			 0.801147  0.539713 -0.258600
			 0.825332  0.541243 -0.160885
			 0.816992  0.546218 -0.184850
			 0.902568  0.307697  0.301154
			 0.903302  0.386603  0.185965
			 0.876435  0.481303 -0.014463
			 0.819535  0.538503 -0.195901
			 0.890392  0.257211  0.375560
			 0.841344  0.204454  0.500339
			 0.784790  0.154962  0.600076
			 0.737027  0.122174  0.664729
			 0.019066 -0.352980  0.935437
			-0.290499 -0.458968  0.839619
			-0.313606 -0.506839  0.802973
			 0.148109 -0.283089  0.947589
			 0.357134 -0.174507  0.917607
			 0.507568 -0.054519  0.859885
			 0.657126  0.047888  0.752258
			-0.186138  0.231166 -0.954942
			-0.263108  0.232406 -0.936356
			-0.406819  0.077118 -0.910248
			-0.106325  0.416200 -0.903035
			-0.287496  0.310881 -0.905924
			-0.064900  0.476673 -0.876682
			-0.320939  0.260981 -0.910432
			 0.006048  0.490555 -0.871389
			 0.622195  0.577511 -0.528540
			 0.264966  0.556718 -0.787311
			 0.152363  0.518283 -0.841527
			 0.766123  0.562117 -0.311578
			-0.219295  0.078946 -0.972459
			-0.316986 -0.171013 -0.932885
			-0.024179 -0.174000 -0.984449
			 0.119604 -0.134768 -0.983632
			 0.234700  0.745034 -0.624372
			 0.026919  0.771397 -0.635784
			-0.057549 -0.129626 -0.989892
			-0.093288  0.530338 -0.842638
			-0.207094  0.044066 -0.977328
			-0.220102  0.317495 -0.922362
			-0.170534  0.623320 -0.763145
			-0.169921  0.683767 -0.709640
			-0.109459  0.733375 -0.670955
			 0.117373 -0.421154  0.899362
			 0.109081 -0.236868  0.965399
			 0.343820  0.052803  0.937550
			 0.203514 -0.199247  0.958584
			 0.235179 -0.248396  0.939676
			-0.096098 -0.112833  0.988956
			 0.065966 -0.235021  0.969749
			 0.197029  0.137940  0.970645
			 0.100598  0.580153  0.808271
			 0.043543  0.335637  0.940985
			 0.286604 -0.561304  0.776399
			 0.276896 -0.557466  0.782663
			 0.198829 -0.521262  0.829912
			 0.238518 -0.485183  0.841253
			 0.223087 -0.630843  0.743148
			 0.367140 -0.604304  0.707124
			 0.071474 -0.594690  0.800772
			 0.022471 -0.651079  0.758677
			-0.047877 -0.699292  0.713231
			-0.172489 -0.618409  0.766692
			-0.366863 -0.535018  0.761030
			 0.302899 -0.656622  0.690724
			 0.124091  0.785327 -0.606517
			-0.141666  0.924198 -0.354667
			-0.184128  0.845829 -0.500669
			-0.470459  0.832761 -0.291852
			-0.623856  0.780717 -0.035857
			-0.508145  0.847432 -0.153776
			-0.489099  0.426699  0.760730
			-0.714400  0.668552  0.206568
			-0.571444  0.776403 -0.265801
			-0.461715 -0.545380  0.699558
			-0.466089 -0.560858  0.684250
			-0.477674 -0.522539  0.706244
			-0.498296 -0.521003  0.693006
			-0.469391 -0.544578  0.695059
			-0.241817 -0.651084  0.719454
			-0.356969 -0.580013  0.732228
			-0.516836 -0.679930  0.520169
			-0.377134 -0.668557  0.640938
			 0.841599  0.524624 -0.128377
			 0.899628  0.249805  0.358144
			 0.908989  0.276753  0.311683
			 0.911943  0.317771  0.259579
			 0.849871  0.524173 -0.054416
			 0.889848  0.455463  0.026901
			 0.911265  0.360447  0.199184
			 0.855622  0.508354 -0.097401
			 0.874087  0.485674 -0.009601
			 0.857112  0.253720  0.448313
			 0.791116  0.167181  0.588375
			 0.781864  0.136522  0.608317
			 0.690107  0.110592  0.715207
			 0.611980  0.022943  0.790540
			-0.164373 -0.406062  0.898941
			-0.475058 -0.473216  0.741881
			-0.501091 -0.464554  0.730136
			-0.477975 -0.491748  0.727822
			 0.011995 -0.299981  0.953870
			-0.016288 -0.309926  0.950621
			 0.162472 -0.225241  0.960661
			-0.111077 -0.361750  0.925634
			-0.268792  0.130811 -0.954274
			-0.325799  0.129408 -0.936541
			-0.453857  0.065697 -0.888650
			-0.246250  0.364564 -0.898028
			-0.075613  0.455374 -0.887084
			-0.381096  0.262549 -0.886473
			-0.477203  0.142850 -0.867105
			-0.324267  0.228502 -0.917953
			-0.389294  0.154046 -0.908141
			 0.654723  0.564814 -0.502317
			 0.541028  0.576725 -0.612108
			 0.175629  0.557499 -0.811388
			 0.475455  0.574329 -0.666400
			 0.698990  0.590554 -0.403311
			-0.470784 -0.165714 -0.866546
			-0.390726 -0.001619 -0.920506
			-0.183888 -0.350023 -0.918515
			-0.136031 -0.248410 -0.959056
			-0.269856  0.445805 -0.853485
			-0.189882 -0.139740 -0.971812
			-0.297917 -0.066792 -0.952252
			-0.384113  0.158618 -0.909559
			-0.290356  0.534360 -0.793822
			-0.325832  0.674500 -0.662482
			-0.221442  0.768091 -0.600833
			-0.373452  0.746923 -0.550127
			-0.129635 -0.520970  0.843674
			 0.046421 -0.375340  0.925724
			 0.138186 -0.008332  0.990371
			-0.061713 -0.335707  0.939943
			-0.363927  0.074022  0.928482
			-0.136133  0.422852  0.895915
			 0.046556 -0.624120  0.779940
			 0.094757 -0.552269  0.828263
			 0.145172 -0.763282  0.629544
			-0.068853 -0.741633  0.667264
			 0.277324 -0.699767  0.658344
			-0.067894 -0.758169  0.648514
			-0.103311 -0.749752  0.653604
			-0.030866 -0.684282  0.728564
			-0.488975  0.713092 -0.502398
			-0.554930  0.730234 -0.398511
			-0.529378  0.847060 -0.047416
			-0.683140  0.730001 -0.020454
			-0.800242  0.599528 -0.013324
			-0.793962  0.607629 -0.020278
			-0.620188  0.776559 -0.111011
			-0.628425  0.748698 -0.211031
			-0.651011  0.579292  0.490516
			-0.872477  0.441120  0.210232
			-0.675820  0.655983 -0.336087
			-0.692964  0.656199 -0.298672
			-0.486246 -0.530851  0.694091
			-0.492105 -0.533379  0.687997
			-0.484084 -0.529963  0.696277
			-0.532825 -0.495776  0.685787
			-0.451576 -0.533947  0.714828
			-0.462907 -0.605194  0.647655
			-0.696808 -0.665570  0.267350
			-0.610268 -0.695787  0.378752
			-0.515654 -0.721415  0.462235
			-0.296037 -0.773673  0.560172
			 0.763826  0.570195 -0.302403
			 0.888820  0.261554  0.376283
			 0.901335  0.372840  0.220423
			 0.879886  0.309000  0.360999
			 0.908068  0.367961  0.200042
			 0.765162  0.570074 -0.299236
			 0.845998  0.530934 -0.048955
			 0.752799  0.612108 -0.242112
			 0.752687  0.594193 -0.283546
			 0.812166  0.566673 -0.138810
			 0.885613  0.463951  0.020941
			 0.775765  0.565416 -0.280165
			 0.870727  0.336333  0.358769
			 0.797483  0.333201  0.502989
			 0.767538  0.226174  0.599776
			 0.652273  0.199693  0.731207
			 0.420926  0.082281  0.903356
			 0.544086 -0.034183  0.838333
			 0.484394  0.016432  0.874695
			 0.330698 -0.119866  0.936094
			-0.371690 -0.428671  0.823461
			-0.577038 -0.472212  0.666366
			-0.582596 -0.481070  0.655098
			-0.543407 -0.461306  0.701360
			-0.394161 -0.391565  0.831453
			-0.226925 -0.309079  0.923567
			-0.165473 -0.372154  0.913302
			-0.397975  0.055410 -0.915721
			-0.496469  0.024934 -0.867696
			-0.525171  0.004579 -0.850985
			-0.484219 -0.022939 -0.874646
			-0.537308 -0.035973 -0.842618
			-0.449725  0.233108 -0.862211
			-0.084311  0.474069 -0.876442
			-0.295013  0.378267 -0.877429
			 0.006556  0.508198 -0.861215
			-0.584854  0.102261 -0.804667
			-0.571805  0.076116 -0.816851
			-0.442607  0.136932 -0.886199
			-0.537415  0.045615 -0.842083
			 0.613469  0.579801 -0.536178
			 0.298401  0.576486 -0.760671
			 0.549415  0.604431 -0.576893
			 0.212159  0.565577 -0.796939
			 0.719831  0.585539 -0.372810
			 0.653233  0.590949 -0.473357
			-0.499509 -0.129879 -0.856517
			-0.486760 -0.227730 -0.843329
			-0.532010 -0.155955 -0.832252
			-0.493450 -0.085909 -0.865521
			-0.444205 -0.355505 -0.822374
			-0.286478 -0.456239 -0.842482
			-0.247193 -0.349907 -0.903582
			-0.366455 -0.193405 -0.910113
			-0.459237 -0.019041 -0.888110
			-0.353558  0.365248 -0.861156
			-0.348796  0.271817 -0.896915
			-0.423129  0.145184 -0.894362
			-0.337356  0.471495 -0.814790
			-0.454576  0.729017 -0.511757
			-0.375707  0.739726 -0.558256
			-0.414227  0.669557 -0.616530
			-0.523435  0.711023 -0.469535
			-0.632945  0.650811 -0.419315
			-0.172866 -0.577766  0.797687
			-0.337026 -0.508621  0.792287
			-0.388920 -0.517482  0.762203
			-0.312872 -0.423906  0.849950
			-0.293133 -0.335532  0.895261
			-0.320273 -0.294424  0.900411
			-0.501712 -0.201296  0.841287
			-0.519897 -0.130913  0.844138
			-0.567997 -0.095172  0.817509
			-0.592616  0.216180  0.775933
			-0.073733 -0.821707  0.565121
			 0.012533 -0.797740  0.602871
			-0.094969 -0.755399  0.648347
			-0.177853 -0.747291  0.640254
			-0.141701 -0.724164  0.674912
			-0.229594 -0.795314  0.561037
			-0.605132  0.697519 -0.383774
			-0.656683  0.749999 -0.079179
			-0.739571  0.666971 -0.090473
			-0.813426  0.573581 -0.096659
			-0.871196  0.490668 -0.016222
			-0.897508  0.435050  0.072192
			-0.716548  0.675756 -0.172954
			-0.885811  0.290707  0.361700
			-0.792365  0.180050  0.582872
			-0.926678  0.316839  0.202189
			-0.737888  0.641119 -0.210920
			-0.615502  0.667392 -0.419219
			-0.666805  0.692883 -0.274380
			-0.710156  0.652439 -0.264580
			-0.481869 -0.524538  0.701900
			-0.478285 -0.536280  0.695448
			-0.430392 -0.525905  0.733612
			-0.462577 -0.554690  0.691622
			-0.621462 -0.543601  0.564165
			-0.579273 -0.574205  0.578559
			-0.750994 -0.557966  0.353103
			-0.658469 -0.610765  0.439756
			-0.672191 -0.651127  0.352411
			-0.724531 -0.683700  0.087225
			-0.792884 -0.595119  0.131029
			-0.713097 -0.624469  0.318640
			-0.817135 -0.575992 -0.022867
			-0.606760 -0.736087  0.300031
			-0.566811 -0.776497  0.275279
			-0.350804 -0.868479  0.350257
			 0.854239  0.435501  0.283926
			 0.883672  0.442508  0.152678
			 0.863726  0.403897  0.301406
			 0.872931  0.389027  0.294364
			 0.848615  0.323559  0.418523
			 0.654386  0.612355 -0.443621
			 0.709914  0.606811 -0.357495
			 0.650933  0.671192 -0.354666
			 0.734155  0.635019 -0.240348
			 0.647818  0.631259 -0.426431
			 0.814622  0.574524 -0.079458
			 0.874422  0.479107  0.076433
			 0.840974  0.540901 -0.013750
			 0.824953  0.384352  0.414399
			 0.716756  0.274252  0.641130
			 0.730808  0.309995  0.608131
			 0.792068  0.243087  0.559943
			 0.477146  0.154827  0.865078
			 0.366209 -0.058000  0.928723
			 0.210520 -0.012901  0.977504
			 0.319755  0.105421  0.941617
			-0.528936 -0.439935  0.725730
			-0.596632 -0.483380  0.640605
			-0.608027 -0.463560  0.644527
			-0.621851 -0.476046  0.621837
			-0.000947 -0.235576  0.971855
			-0.436506 -0.314714  0.842863
			-0.511478 -0.403034  0.758916
			-0.479985 -0.329921  0.812875
			-0.560514 -0.425178  0.710667
			-0.351541 -0.218607  0.910291
			-0.144778 -0.252371  0.956738
			 0.056432 -0.189156  0.980324
			-0.511021 -0.088245 -0.855026
			-0.520113  0.041579 -0.853085
			-0.641078 -0.032141 -0.766802
			-0.528496  0.001921 -0.848934
			-0.539350 -0.013363 -0.841976
			-0.552617 -0.087358 -0.828844
			-0.582876  0.190458 -0.789925
			-0.425957  0.334024 -0.840826
			-0.130253  0.486609 -0.863855
			-0.645993  0.091211 -0.757874
			-0.599906  0.077403 -0.796318
			-0.581462  0.084258 -0.809199
			-0.573699  0.088534 -0.814267
			-0.568276  0.102182 -0.816469
			-0.546013  0.062361 -0.835453
			-0.604422 -0.014371 -0.796535
			 0.461017  0.685420 -0.563616
			 0.396523  0.592883 -0.700899
			 0.463317  0.587559 -0.663410
			 0.264184  0.584066 -0.767512
			 0.161933  0.567214 -0.807494
			-0.555657 -0.120205 -0.822676
			-0.586071 -0.133359 -0.799210
			-0.366528 -0.284538 -0.885830
			-0.475557 -0.146989 -0.867317
			-0.378660 -0.183271 -0.907209
			-0.304327 -0.205240 -0.930194
			-0.555510 -0.147917 -0.818248
			-0.518837 -0.095110 -0.849566
			-0.130595 -0.470148 -0.872872
			-0.224375 -0.331548 -0.916369
			-0.234387 -0.445097 -0.864263
			-0.250939 -0.311312 -0.916578
			-0.393137 -0.111788 -0.912659
			-0.420596  0.015092 -0.907123
			-0.412182  0.227795 -0.882165
			-0.513275  0.747277 -0.422050
			-0.355063  0.219873 -0.908618
			-0.358840  0.447813 -0.818961
			-0.343561  0.577548 -0.740543
			-0.399535  0.646191 -0.650238
			-0.433057  0.795256 -0.424299
			-0.549173  0.671371 -0.497665
			-0.211090 -0.646516  0.733116
			-0.344002 -0.584110  0.735172
			-0.469589 -0.417727  0.777811
			-0.377045 -0.554320  0.742002
			-0.533026 -0.276305  0.799712
			-0.558864 -0.206493  0.803138
			-0.691181 -0.119612  0.712714
			-0.756230 -0.008978  0.654245
			-0.739702  0.151553  0.655647
			-0.105926 -0.838052  0.535209
			-0.082753 -0.815233  0.573190
			-0.032306 -0.798702  0.600859
			-0.114621 -0.749705  0.651770
			-0.218918 -0.679100  0.700641
			-0.198248 -0.814788  0.544811
			-0.166532 -0.821937  0.544689
			-0.064478 -0.826613  0.559065
			-0.557441  0.789932 -0.255474
			-0.862819  0.501000  0.067403
			-0.891937  0.440491  0.102056
			-0.798770  0.598617  0.060196
			-0.894798  0.445684 -0.026513
			-0.919404  0.389195  0.056780
			-0.941676  0.264635  0.207884
			-0.809970  0.152501  0.566297
			-0.933390  0.252281  0.255218
			-0.902088  0.215128  0.374108
			-0.934041  0.232361  0.271250
			-0.799310  0.577385 -0.166522
			-0.799001  0.568095 -0.197143
			-0.716421  0.690445 -0.100132
			-0.594027  0.781689 -0.189986
			-0.586529 -0.612076  0.530422
			-0.642371 -0.607918  0.466684
			-0.732598 -0.461294  0.500507
			-0.796408 -0.481928  0.365349
			-0.804376 -0.518609  0.289867
			-0.748822 -0.589292  0.303315
			-0.717673 -0.592208  0.366380
			-0.778571 -0.574301  0.252993
			-0.778811 -0.576574  0.247015
			-0.756248 -0.632232 -0.168441
			-0.826547 -0.477390 -0.298192
			-0.795669 -0.581816  0.168525
			-0.866832 -0.448367 -0.218106
			-0.660451 -0.748659  0.057572
			-0.587921 -0.805429  0.075053
			-0.383234 -0.910197  0.157074
			-0.562484 -0.821711 -0.091665
			-0.234317 -0.905816  0.352978
			 0.812882  0.460017  0.357222
			 0.739711  0.594141  0.315951
			 0.845632  0.496250  0.196579
			 0.712302  0.600392  0.363532