<?xml version="1.0"?>
<VTKFile type="PolyData" version="0.1" byte_order="LittleEndian" compressor="vtkZLibDataCompressor">
	<PolyData>
		<Piece NumberOfPoints="3305" NumberOfVerts="0" NumberOfLines="0" NumberOfStrips="0" NumberOfPolys="3779">
		<PointData Normals="Normals">
		<DataArray type="Float32" Name="Normals" NumberOfComponents="3" format="ascii">
			0.592080 -0.014280 -0.805753
			0.178489 -0.848812 -0.497654
			0.408273 -0.520164 -0.750162
			0.325192 -0.741583 -0.586774
			0.502484 0.150410 -0.851403
			0.879055 -0.368413 -0.302547
			0.719792 -0.210936 -0.661367
			0.800543 -0.426717 -0.420766
			0.754263 -0.190650 -0.628283
			0.536712 -0.645584 -0.543287
			0.426425 -0.671343 -0.606185
			0.299718 -0.555599 -0.775551
			0.160683 -0.440833 -0.883090
			0.222734 -0.838608 -0.497118
			0.523650 -0.352045 -0.775793
			-0.065000 -0.229827 -0.971058
			-0.005689 -0.838313 -0.545159
			-0.077201 -0.786263 -0.613050
			-0.358433 -0.795014 -0.489366
			0.120861 -0.925301 -0.359459
			0.402529 -0.701851 -0.587687
			0.209409 -0.220536 -0.952634
			-0.297393 0.951453 0.079335
			0.340858 -0.659634 -0.669850
			0.386017 -0.818103 -0.426261
			0.795795 -0.549735 -0.253973
			0.667249 0.121367 -0.734880
			0.772111 -0.014567 -0.635321
			0.918220 -0.322463 -0.229978
			0.830824 -0.556332 0.015054
			0.835498 -0.538877 -0.107497
			0.887904 -0.452726 -0.081637
			0.629381 -0.695918 -0.345800
			0.892276 -0.416373 -0.174574
			0.731320 -0.150931 -0.665125
			0.722927 -0.568154 -0.393163
			0.386938 -0.798609 -0.460981
			0.843372 -0.115806 -0.524702
			0.475068 -0.111522 -0.872853
			-0.130035 -0.128457 -0.983153
			-0.086632 -0.036586 -0.995568
			0.527273 -0.020422 -0.849450
			-0.087792 -0.000118 -0.996139
			0.517032 -0.069774 -0.853117
			0.870196 -0.219119 -0.441299
			-0.400984 -0.505500 -0.763991
			-0.313127 -0.089699 -0.945466
			-0.361764 -0.145569 -0.920835
			-0.294745 -0.339482 -0.893240
			0.329067 -0.463579 -0.822684
			0.266930 -0.614246 -0.742597
			0.536478 -0.577018 -0.615826
			-0.418599 0.102819 -0.902332
			-0.046824 0.008630 -0.998866
			0.392940 -0.912069 -0.117170
			0.142948 -0.045954 -0.988663
			-0.418160 0.213909 -0.882828
			0.112185 0.004697 -0.993676
			0.667748 -0.070104 -0.741078
			0.927371 -0.065929 -0.368289
			0.831400 0.216036 -0.511959
			0.270109 -0.931008 -0.245490
			0.802610 -0.541783 -0.249576
			0.936243 0.348248 0.046603
			0.540064 -0.640211 -0.546316
			0.123201 -0.676213 -0.726332
			0.884735 0.049536 -0.463454
			0.768506 -0.628456 -0.120173
			0.779088 -0.582504 -0.231757
			0.260384 -0.951308 -0.164966
			0.901465 -0.328206 -0.282209
			0.846341 -0.500930 -0.181041
			0.868390 -0.485854 -0.099218
			0.956074 -0.072937 -0.283908
			0.604799 0.003924 -0.796368
			0.917727 -0.290199 -0.271221
			0.974897 -0.159512 0.155346
			0.956332 -0.273575 -0.102885
			0.965679 0.176237 -0.190799
			0.856646 -0.462466 -0.228656
			-0.675415 -0.695099 -0.246275
			-0.131563 -0.851389 -0.507768
			0.500465 -0.543948 -0.673540
			0.135383 -0.475229 -0.869384
			0.029731 -0.411889 -0.910749
			-0.028719 -0.586182 -0.809670
			-0.551676 -0.310329 -0.774177
			0.315694 -0.610489 -0.726389
			0.130365 -0.693516 -0.708548
			-0.040999 -0.976559 -0.211311
			-0.698745 -0.266215 -0.663992
			-0.572484 -0.075270 -0.816454
			-0.411677 -0.019435 -0.911122
			-0.366903 0.390904 -0.844142
			-0.449164 -0.112300 -0.886364
			-0.407440 -0.049002 -0.911916
			-0.588704 -0.000924 -0.808348
			-0.091709 0.283885 -0.954462
			0.632750 0.350301 -0.690591
			-0.446931 0.139561 -0.883615
			0.649743 0.039313 -0.759137
			0.726924 0.088423 -0.681001
			-0.335460 0.078476 -0.938780
			-0.487850 -0.217201 -0.845474
			0.976692 -0.004729 -0.214594
			0.176697 -0.580527 -0.794837
			-0.362848 -0.452946 -0.814359
			0.568857 -0.581548 -0.581553
			0.703991 -0.565847 -0.429202
			0.335496 -0.393759 -0.855801
			0.622554 -0.751826 -0.217218
			0.908054 0.201305 -0.367307
			0.488511 -0.698625 -0.522762
			0.565955 -0.626070 -0.536406
			-0.154851 0.104560 -0.982389
			0.366099 0.230185 -0.901657
			0.308527 0.143197 -0.940375
			0.771444 0.220893 -0.596724
			0.631193 -0.770759 -0.086756
			0.737065 -0.583152 -0.341569
			0.590194 -0.605174 -0.534262
			0.675519 -0.197481 -0.710405
			0.175079 -0.960586 -0.215922
			-0.656676 -0.728997 0.193238
			0.844647 -0.179332 -0.504392
			0.752985 0.155333 -0.639441
			0.364877 0.924638 -0.109131
			0.540550 0.717159 -0.439873
			0.924492 0.177267 -0.337477
			0.973147 0.153041 -0.171940
			0.690369 0.010011 -0.723389
			0.843639 -0.308665 -0.439316
			0.883784 -0.318740 -0.342537
			0.903013 -0.075454 -0.422936
			0.397302 -0.074299 0.914675
			0.430530 0.401354 0.808430
			0.330373 -0.363194 0.871174
			0.730295 0.668010 0.142936
			0.354459 -0.593927 0.722225
			-0.960965 -0.164400 -0.222529
			-0.939701 -0.168948 0.297353
			-0.586862 -0.808641 -0.041144
			-0.235119 -0.904594 0.355569
			0.050663 -0.992816 -0.108392
			-0.223862 -0.942000 -0.250045
			-0.531172 -0.761027 -0.372416
			0.436432 -0.883627 0.169503
			0.016213 -0.981567 0.190430
			-0.412814 -0.872059 0.262865
			-0.557634 -0.828883 0.044681
			-0.685085 0.100804 -0.721455
			-0.826536 -0.003240 -0.562874
			-0.953429 -0.090674 -0.287666
			-0.408516 -0.175137 -0.895791
			-0.646478 0.034671 -0.762145
			0.494263 -0.135314 -0.858716
			-0.222391 0.402643 -0.887931
			-0.542128 0.160266 -0.824871
			0.758892 -0.341916 -0.554235
			0.074422 0.985218 -0.154294
			-0.648380 0.008656 -0.761267
			-0.730662 0.068145 -0.679329
			-0.775387 0.086238 -0.625570
			0.223587 0.161153 -0.961269
			-0.227464 0.072415 -0.971090
			-0.501393 0.322722 -0.802780
			-0.849085 -0.109148 -0.516857
			-0.253937 -0.524845 -0.812437
			0.561370 -0.433097 -0.705188
			0.306081 -0.502780 -0.808410
			-0.914349 -0.356325 -0.192350
			-0.770777 -0.478533 -0.420606
			-0.030560 -0.982521 0.183626
			-0.267513 -0.947901 -0.172977
			-0.225007 -0.917297 -0.328539
			-0.118435 -0.528888 -0.840387
			0.314482 -0.917661 -0.242896
			-0.378179 -0.786384 -0.488448
			0.786126 -0.599670 -0.149673
			0.857443 -0.450391 -0.248877
			0.875491 -0.182736 -0.447350
			-0.010741 -0.966106 -0.257921
			0.727574 0.510220 -0.458597
			0.860112 0.170306 -0.480835
			0.673001 -0.657783 -0.338218
			0.976465 0.215330 0.012195
			-0.059435 -0.523605 -0.849886
			0.738873 -0.569701 -0.359871
			0.299461 -0.765108 -0.570029
			0.782408 -0.593891 0.187433
			0.903899 0.160422 -0.396524
			0.742150 0.266834 -0.614827
			0.444610 -0.633407 -0.633338
			0.511431 -0.243652 -0.824058
			-0.107864 -0.984042 -0.141518
			0.391244 0.184692 -0.901564
			0.455413 0.136571 -0.879743
			0.434476 0.578193 -0.690596
			-0.682153 -0.580564 0.444537
			0.854508 0.279580 -0.437780
			0.661500 0.218910 -0.717284
			0.454254 0.889840 0.042886
			0.172226 0.978042 -0.117357
			0.127797 0.914683 -0.383436
			0.378074 0.912357 0.157052
			0.441024 0.631532 -0.637703
			0.064669 0.802626 -0.592967
			0.522138 0.199577 -0.829181
			0.810366 -0.229463 -0.539123
			0.676908 0.128628 -0.724742
			0.807017 0.000049 -0.590529
			0.508027 -0.790298 0.342547
			0.610035 0.266068 -0.746367
			0.149128 0.542114 -0.826966
			-0.084496 0.040062 0.995618
			-0.194333 0.086724 0.977094
			-0.024415 -0.086530 0.995950
			-0.514172 0.172534 0.840154
			-0.000400 -0.256166 0.966633
			0.477393 -0.770110 0.423117
			0.078163 -0.580891 0.810220
			0.215801 -0.972803 -0.084172
			-0.970923 -0.088591 0.222398
			-0.723320 -0.234051 0.649638
			-0.109374 -0.988282 0.106472
			-0.310926 -0.943009 -0.118567
			0.078541 -0.985643 0.149466
			0.100972 -0.961416 0.255898
			-0.344202 -0.934634 -0.089357
			-0.261380 -0.937247 -0.230756
			-0.573379 -0.796164 -0.193285
			0.171956 -0.975113 0.139949
			0.151323 -0.966889 0.205493
			-0.530798 -0.847496 -0.002130
			-0.251937 -0.958496 0.133465
			-0.775238 0.196600 -0.600295
			-0.802211 0.196787 -0.563677
			-0.757587 0.284775 -0.587337
			-0.906057 -0.131843 -0.402091
			-0.946611 0.042159 0.319611
			-0.915168 -0.328045 -0.234208
			-0.591525 -0.721201 -0.360510
			-0.195392 0.358108 -0.913006
			0.755638 -0.117342 -0.644392
			0.877930 -0.208349 -0.431079
			-0.509894 0.153082 -0.846507
			-0.239539 0.700842 -0.671894
			-0.253415 0.928646 -0.270918
			-0.762368 0.139241 -0.631987
			0.700787 -0.120545 -0.703112
			0.157793 0.144566 -0.976833
			-0.556532 0.271618 -0.785172
			-0.865298 0.070071 -0.496336
			-0.952271 0.076129 -0.295610
			-0.949537 0.176383 -0.259362
			-0.124984 -0.360002 -0.924542
			-0.458781 -0.040893 -0.887608
			-0.582410 0.212434 -0.784647
			0.028968 -0.887099 -0.460670
			0.020168 -0.964201 -0.264403
			-0.295859 -0.927364 -0.229050
			-0.590211 -0.758668 -0.275816
			-0.934398 -0.327611 -0.139898
			-0.115816 -0.963271 0.242271
			-0.486720 -0.844618 0.222989
			-0.496789 -0.853222 -0.158782
			-0.601024 -0.681678 0.417235
			0.351580 -0.670810 -0.652997
			0.543787 0.274484 -0.793067
			-0.053032 0.262280 -0.963534
			0.625345 0.292260 -0.723552
			0.968316 0.104865 0.226646
			0.916467 0.258229 -0.305624
			0.994808 0.101765 0.000000
			0.380438 0.912091 -0.152830
			-0.786295 -0.387731 -0.481046
			0.735400 -0.656554 -0.167701
			0.925885 0.134668 -0.352990
			0.782952 -0.542350 -0.304701
			0.933434 -0.358309 0.017792
			0.746501 -0.647396 0.153671
			0.100490 -0.994923 0.005523
			0.502116 -0.182522 -0.845319
			0.834465 -0.540374 0.107998
			-0.267740 -0.890387 0.368138
			0.220693 -0.661286 0.716934
			0.133456 -0.832872 0.537135
			-0.156255 -0.987197 0.032028
			0.621788 0.781599 -0.049829
			0.889557 0.452484 -0.062821
			0.180821 -0.654154 -0.734429
			-0.525202 -0.850605 -0.025196
			-0.109035 -0.574040 -0.811535
			0.255399 -0.049394 -0.965573
			0.347172 0.816286 -0.461681
			-0.103622 0.448384 -0.887814
			-0.107042 0.988877 -0.103267
			-0.022748 0.039886 -0.998945
			-0.602125 0.131862 -0.787437
			-0.046202 0.924743 0.377777
			0.516299 -0.039541 -0.855495
			0.841863 -0.209338 -0.497438
			0.960510 -0.242290 0.136803
			-0.600381 0.196428 -0.775215
			0.429548 0.834410 0.345325
			0.365130 0.800826 -0.474719
			0.443566 0.840528 -0.311066
			0.567916 0.802500 -0.182934
			0.247165 0.802496 -0.543056
			0.488315 0.850586 -0.195066
			-0.000782 0.683685 -0.729777
			0.312687 0.768171 -0.558695
			0.661821 0.299781 -0.687113
			0.885737 -0.190357 -0.423361
			0.660279 0.411288 -0.628390
			0.644733 -0.718462 0.261020
			0.834892 0.344747 -0.429075
			0.780889 0.221495 -0.584083
			0.601863 0.276063 -0.749366
			0.552569 -0.794969 0.250384
			0.328534 0.308646 -0.892638
			0.188708 0.288117 -0.938817
			-0.167374 -0.053606 0.984435
			-0.246168 -0.063857 0.967121
			-0.237307 0.034117 0.970835
			-0.073371 -0.086035 0.993587
			-0.305266 -0.155961 0.939409
			-0.450427 -0.641170 0.621302
			-0.050428 -0.266894 0.962406
			0.490830 -0.862701 -0.121793
			0.074420 -0.611019 0.788110
			0.178457 -0.935135 -0.306064
			0.294281 -0.940001 -0.172615
			-0.052622 -0.962088 -0.267613
			0.341385 -0.939726 -0.019256
			0.254757 -0.620669 -0.741532
			0.227666 -0.618598 -0.752001
			0.572724 -0.819676 0.010880
			0.292042 -0.956406 0.000000
			-0.614600 0.454906 0.644458
			-0.608284 -0.088720 0.788746
			-0.647027 -0.762421 -0.008429
			0.165571 -0.952389 0.256012
			-0.558623 -0.825666 0.078847
			0.455850 -0.808318 0.372590
			0.057826 -0.950503 0.305289
			0.114182 -0.818614 0.562880
			0.255180 -0.844420 0.470996
			0.174991 -0.964942 0.195616
			0.157428 -0.987231 -0.024316
			-0.401158 -0.905340 0.139394
			-0.900315 -0.385690 0.201686
			-0.529603 -0.844300 -0.081720
			-0.346825 -0.900864 0.261068
			0.138373 -0.884293 0.445958
			0.461484 -0.865263 0.195838
			0.376551 -0.899291 0.222452
			-0.786379 -0.151585 -0.598858
			-0.780803 0.133131 -0.610429
			-0.401307 -0.420746 -0.813588
			-0.216968 -0.974247 -0.061386
			-0.994926 0.028343 0.096534
			-0.927434 -0.215284 -0.305808
			-0.894570 0.430923 -0.118534
			-0.163470 -0.557073 -0.814215
			0.443898 -0.894963 0.044671
			0.205251 -0.260812 -0.943318
			0.835583 -0.353521 -0.420505
			0.683345 -0.341569 -0.645267
			-0.305367 0.235238 -0.922721
			-0.238384 0.042064 -0.970260
			-0.730047 -0.520804 -0.442487
			0.105614 0.426560 0.898272
			0.273696 -0.318043 0.907711
			-0.812992 0.566666 -0.133919
			-0.430354 0.252365 -0.866664
			0.262521 -0.218401 -0.939885
			-0.307265 -0.036142 -0.950937
			0.597345 -0.281819 0.750838
			-0.016404 -0.360200 0.932731
			-0.747811 -0.523953 0.407741
			-0.197073 -0.684805 -0.701572
			0.431002 -0.650618 -0.625247
			-0.731326 0.187421 -0.655771
			-0.559008 0.340660 -0.755951
			-0.523390 0.403183 -0.750671
			-0.161143 0.219317 -0.962254
			-0.482833 -0.666048 -0.568553
			-0.689290 -0.513056 -0.511520
			-0.878676 -0.358173 0.315660
			0.039787 -0.966349 -0.254138
			-0.510296 -0.813128 -0.280037
			-0.361511 -0.851799 -0.379141
			-0.122081 -0.864381 -0.487793
			-0.169153 -0.812181 -0.558345
			-0.305860 -0.952065 0.004678
			0.217069 -0.974337 0.059569
			-0.843014 -0.224673 0.488721
			-0.282317 -0.612901 0.738004
			-0.341846 -0.891790 0.296398
			-0.812514 -0.451367 0.368904
			-0.383521 -0.659563 0.646443
			-0.473747 -0.503324 0.722654
			0.927090 0.247026 0.281925
			0.512234 -0.522812 -0.681384
			-0.061036 -0.326446 -0.943243
			0.747336 -0.664426 -0.005137
			-0.078600 -0.416831 -0.905579
			0.848248 -0.410046 0.335168
			0.999973 0.007293 0.000000
			0.924848 0.143467 0.352242
			0.858933 0.177350 0.480396
			0.740138 0.565601 0.363717
			-0.285033 -0.076936 -0.955425
			0.187734 0.030780 -0.981738
			0.113335 0.203918 0.972406
			-0.385140 0.026979 -0.922464
			-0.362909 -0.731766 -0.576901
			-0.452885 -0.891559 0.004190
			0.007434 -0.923190 0.384272
			0.302541 0.393136 -0.868282
			0.117283 0.133013 -0.984151
			-0.283249 -0.017767 -0.958882
			-0.357600 -0.734315 0.576978
			-0.123123 -0.919348 0.373684
			0.779836 -0.334248 -0.529278
			0.881952 -0.471339 0.000409
			0.925834 -0.326910 -0.189635
			0.857744 0.115644 -0.500901
			0.882044 0.390007 -0.264371
			0.934209 0.355419 0.030530
			0.833050 0.315383 -0.454489
			0.476453 0.195174 -0.857263
			-0.229197 -0.585709 0.777440
			-0.399619 -0.662650 0.633404
			-0.101742 -0.465105 0.879390
			-0.456170 -0.813118 -0.361591
			-0.690006 -0.675452 0.260106
			0.678448 0.542870 0.494975
			0.779872 -0.155949 0.606201
			-0.172156 -0.519652 -0.836854
			-0.526148 -0.850340 0.009497
			0.103620 0.913205 -0.394106
			0.132100 0.900261 -0.414825
			0.026859 -0.613055 -0.789583
			-0.184363 0.813334 0.551814
			-0.346927 0.613039 0.709807
			-0.937975 0.124810 -0.323457
			0.197273 0.150646 -0.968705
			0.610137 -0.332477 -0.719161
			-0.417492 0.249715 -0.873695
			0.672066 -0.690976 0.266233
			0.515253 -0.432326 0.740006
			-0.837007 0.215404 -0.503011
			0.515747 0.836414 -0.185514
			0.564254 0.459890 -0.685652
			0.961649 0.266259 0.065866
			0.870882 0.362952 -0.331407
			0.974497 -0.128768 -0.183780
			0.804244 0.524856 -0.278781
			0.829448 0.474998 -0.293926
			0.938581 -0.037053 -0.343065
			0.989765 0.132820 -0.052190
			0.642825 0.167633 -0.747446
			0.679844 -0.187888 -0.708879
			0.567847 -0.120579 -0.814254
			0.993230 -0.115587 0.011582
			0.275583 -0.164240 -0.947143
			0.707636 0.023464 -0.706188
			-0.128299 -0.093073 0.987358
			-0.079467 -0.174410 0.981461
			-0.126596 -0.071895 0.989345
			-0.183067 -0.228849 0.956093
			-0.220716 -0.129379 0.966719
			-0.268687 -0.029485 0.962776
			-0.138301 -0.321746 0.936671
			0.076172 -0.646188 0.759368
			0.685422 -0.726606 -0.047336
			0.012450 -0.671249 0.741127
			0.635903 -0.771238 0.028626
			0.268576 -0.963255 -0.002554
			-0.262933 -0.725486 0.636032
			-0.454914 -0.889573 0.041399
			-0.392491 -0.871640 -0.293588
			0.106276 -0.602345 -0.791130
			0.320655 -0.944523 0.071116
			-0.192942 -0.980895 -0.024867
			0.982800 -0.107484 0.150171
			0.559898 -0.761878 -0.325664
			0.204181 -0.973874 0.099393
			0.149647 -0.005444 0.988725
			0.187197 -0.525785 0.829764
			-0.507489 -0.065853 0.859138
			0.383786 -0.252070 0.888352
			-0.090521 -0.322598 0.942198
			-0.644962 -0.274267 0.713304
			-0.876266 -0.187507 0.443845
			-0.415646 -0.189481 0.889571
			0.052771 -0.100853 0.993501
			-0.665602 -0.104837 0.738907
			0.478025 -0.343327 0.808467
			0.446271 -0.424697 0.787703
			-0.186236 -0.418093 0.889109
			-0.431031 -0.284791 0.856216
			0.180025 -0.281193 0.942614
			0.092366 -0.668322 0.738116
			0.304987 -0.423605 0.852960
			0.249567 -0.919440 -0.303887
			0.343259 -0.102687 -0.933610
			0.786800 -0.341944 -0.513828
			0.750642 -0.636895 0.175785
			-0.512520 -0.238985 -0.824749
			0.358187 -0.403813 -0.841806
			0.536412 -0.688529 -0.488046
			0.339791 -0.408821 -0.846999
			0.817761 -0.561348 -0.127103
			-0.227101 -0.888305 0.399173
			0.430066 -0.787758 -0.440999
			-0.055460 -0.836736 -0.544790
			0.057181 0.269240 -0.961374
			-0.124742 0.097011 -0.987435
			-0.619553 0.241204 -0.746977
			-0.985225 -0.159955 -0.061198
			-0.612522 -0.451560 0.648776
			0.143406 -0.797444 -0.586104
			-0.852799 -0.495251 0.165714
			0.083572 -0.996283 -0.020892
			-0.166264 -0.836455 0.522206
			-0.641026 -0.718357 -0.270276
			0.204582 0.374840 -0.904235
			-0.541687 -0.729382 -0.417825
			-0.755230 -0.544378 -0.365076
			0.998907 0.046273 0.006629
			0.998782 0.017912 -0.045969
			0.418512 0.133183 0.898393
			-0.741828 -0.112225 0.661133
			-0.913435 -0.404729 -0.042790
			-0.182371 -0.374995 -0.908911
			0.551497 -0.152229 -0.820169
			0.332875 0.339384 -0.879780
			0.470486 0.298843 -0.830263
			0.644882 0.168363 -0.745507
			-0.466050 -0.854515 -0.229348
			-0.330009 -0.924368 0.191413
			-0.206526 -0.974818 -0.084129
			-0.380484 -0.858094 -0.344828
			-0.570915 -0.791094 -0.219606
			-0.656775 -0.721024 -0.220843
			-0.732661 -0.663242 0.152704
			0.374116 -0.564481 0.735798
			-0.180759 -0.480469 0.858182
			0.498859 0.629783 0.595410
			-0.510692 -0.370746 0.775720
			0.014317 -0.780078 0.625519
			-0.455300 -0.147994 0.877952
			-0.136408 -0.421946 0.896300
			-0.192584 -0.593863 0.781177
			0.817287 0.527698 -0.231468
			0.968814 -0.116467 0.218714
			-0.235807 -0.963744 0.124870
			-0.291925 -0.956422 -0.006015
			-0.073198 -0.960384 0.268894
			-0.253862 -0.843163 0.473952
			0.758209 -0.641517 0.116510
			0.818953 -0.520814 0.240974
			0.908054 0.201305 0.367307
			0.780813 -0.551709 0.293170
			0.732570 0.665224 -0.144286
			-0.653002 0.454607 -0.605740
			-0.618120 0.080261 0.781976
			-0.372121 0.047461 0.926970
			0.088320 0.346769 0.933783
			0.148798 -0.965878 0.211988
			0.152242 -0.937949 0.311567
			0.058328 -0.950801 0.304260
			-0.844091 -0.274480 -0.460620
			-0.320867 -0.808899 -0.492674
			-0.319535 -0.946673 0.041334
			-0.502655 -0.837175 -0.215580
			-0.266771 -0.825657 0.497115
			0.215049 -0.533360 0.818096
			-0.390514 -0.872571 0.293461
			-0.450614 -0.871119 0.195188
			0.818130 0.304501 0.487794
			0.943186 -0.328917 0.047056
			0.905238 -0.359789 0.226043
			0.744525 -0.424532 0.515223
			0.724603 0.315963 0.612469
			0.504166 -0.140032 -0.852178
			0.779686 -0.445795 0.439724
			0.730295 -0.682193 -0.035800
			0.365306 -0.900513 -0.235857
			0.645149 -0.570843 -0.507858
			0.025689 -0.350438 0.936233
			-0.222888 -0.491238 0.842025
			-0.675541 -0.460761 0.575625
			-0.699546 -0.623340 0.349403
			-0.814790 -0.471489 0.337365
			0.979922 -0.107943 0.167631
			-0.090490 -0.988097 -0.124404
			-0.012861 -0.040415 0.999100
			0.265024 0.634860 0.725752
			0.031850 0.167952 -0.985281
			0.018615 -0.698008 -0.715848
			0.213024 -0.952776 -0.216423
			-0.711831 0.020864 -0.702040
			-0.349695 -0.349679 -0.869159
			0.488814 0.269462 -0.829730
			0.762540 -0.175515 -0.622677
			0.245885 0.247259 -0.937232
			0.065458 -0.016179 -0.997724
			0.517750 0.313790 -0.795909
			0.469157 -0.815214 0.339585
			-0.031078 -0.301305 -0.953021
			0.237537 -0.560133 0.793617
			0.957431 -0.241730 0.157774
			0.931028 0.364946 0.001058
			0.842854 0.538121 -0.004783
			0.868885 0.494810 -0.014203
			0.910342 0.413772 -0.008373
			0.896472 -0.296373 -0.329396
			0.982654 -0.179280 -0.047431
			0.997900 0.064773 -0.000238
			0.966987 -0.254786 -0.004577
			0.346807 -0.603220 -0.718228
			0.706590 -0.573488 -0.414538
			0.113565 -0.377650 -0.918958
			0.846707 0.366250 0.385937
			0.555690 -0.206666 -0.805294
			0.737723 -0.403345 -0.541367
			-0.501903 -0.246345 0.829100
			-0.538518 -0.305209 -0.785395
			-0.560670 -0.311010 0.767412
			-0.954505 -0.297854 -0.014229
			-0.405035 -0.698183 0.590328
			-0.176664 -0.971868 -0.155767
			-0.196322 -0.631096 0.750450
			0.024184 -0.468318 0.883229
			-0.098043 -0.820362 0.563377
			0.644665 -0.728540 0.231594
			0.475509 -0.388388 0.789333
			0.206676 -0.975280 -0.078194
			-0.086035 -0.396940 0.913803
			0.044478 -0.644140 -0.763614
			-0.116118 -0.533278 0.837933
			-0.371775 -0.850303 0.372515
			-0.526039 -0.753907 0.393582
			-0.457934 -0.886509 0.066321
			0.091598 -0.611987 0.785546
			0.076416 -0.521436 0.849862
			0.895921 -0.297025 0.330307
			0.568450 -0.726205 -0.386641
			0.675087 0.252495 0.693183
			0.438711 -0.821587 -0.364043
			0.070141 -0.553922 -0.829609
			0.065746 -0.556954 -0.827937
			0.338471 -0.938317 0.070708
			0.348896 -0.598793 -0.720915
			0.259184 -0.388319 0.884326
			0.629170 0.276296 0.726503
			-0.646100 0.080554 0.758990
			-0.650417 -0.407837 0.640802
			0.409515 -0.672077 0.616935
			-0.449431 -0.203380 0.869855
			0.069556 0.941013 -0.331145
			0.557672 0.764194 0.324052
			0.017277 0.085822 0.996161
			-0.163038 0.128423 0.978226
			0.889208 -0.446697 -0.098848
			0.710723 -0.304157 -0.634320
			0.439511 -0.883389 -0.162649
			0.714947 -0.666837 0.210188
			0.248339 -0.525119 -0.813989
			0.647930 -0.410136 -0.641853
			0.601022 -0.403617 -0.689830
			0.583726 -0.396921 -0.708321
			0.622344 -0.420701 -0.660075
			0.575793 -0.625763 -0.526197
			0.274025 -0.819268 -0.503696
			0.174607 -0.924527 0.338766
			-0.300431 -0.953661 -0.016496
			-0.736484 -0.675848 0.028662
			0.019421 0.234281 -0.971975
			-0.632346 0.215286 -0.744171
			-0.691643 -0.524065 0.496976
			-0.937337 0.027784 0.347315
			-0.981994 0.177065 -0.065842
			-0.686488 -0.552371 -0.472885
			0.016013 -0.551479 -0.834035
			-0.826193 -0.220673 0.518371
			-0.186307 -0.970514 -0.152948
			0.398023 -0.913899 -0.079792
			0.635817 -0.726323 0.261136
			0.432884 -0.831638 0.347836
			0.319398 -0.875966 0.361481
			0.049465 -0.997727 0.045769
			0.273175 -0.915752 0.294574
			-0.612882 -0.668023 0.422044
			-0.397485 -0.855519 -0.331802
			-0.551116 -0.826264 -0.116442
			0.115413 -0.959021 0.258763
			0.289853 0.145021 -0.946020
			0.836010 -0.475615 -0.273640
			0.572205 -0.381857 -0.725787
			0.588013 -0.061673 0.806497
			-0.675821 -0.392394 0.623933
			-0.647989 -0.760336 -0.044721
			-0.265190 -0.940289 -0.213378
			0.402636 -0.894927 -0.192329
			0.441347 0.065197 -0.894965
			0.439925 -0.053641 -0.896431
			0.432457 -0.434292 -0.790172
			0.185745 -0.969563 0.159521
			0.178263 -0.927476 -0.328649
			-0.671402 -0.275944 0.687804
			-0.047450 -0.572649 0.818426
			-0.100603 -0.556261 0.824895
			-0.621331 -0.206438 0.755865
			-0.582886 -0.358372 0.729255
			0.601527 -0.795020 0.078161
			0.023427 -0.862747 0.505093
			0.025287 -0.988741 0.147487
			-0.002490 -0.548235 0.836320
			-0.620951 -0.127212 0.773458
			-0.245825 -0.261036 0.933504
			-0.631661 -0.671310 0.387747
			-0.238415 -0.948866 -0.206912
			-0.606797 -0.651745 0.455001
			-0.631869 -0.747016 0.206660
			0.219887 -0.965781 0.137539
			0.909351 -0.415762 -0.014907
			0.830592 0.225284 0.509278
			0.646490 -0.728756 0.225755
			0.960419 0.084359 0.265477
			0.980031 0.190786 -0.056036
			0.314482 -0.917661 0.242896
			0.454832 -0.728992 0.511565
			0.947300 -0.320214 0.009255
			0.698366 -0.126018 0.704560
			0.440062 0.403857 -0.802025
			-0.316645 0.270339 -0.909205
			-0.466237 0.038070 -0.883841
			-0.320021 -0.946519 -0.041092
			-0.349765 -0.719579 -0.599892
			0.693516 -0.720440 -0.001567
			0.460530 -0.884287 -0.077126
			-0.211454 -0.548015 -0.809300
			-0.218729 -0.064366 -0.973661
			-0.369586 -0.721077 -0.586050
			-0.467713 -0.883617 -0.021585
			-0.503799 -0.828523 -0.244410
			-0.366078 -0.758035 0.539786
			-0.541018 -0.762012 0.355860
			-0.489233 -0.846094 0.211603
			0.263884 -0.964554 -0.000694
			-0.501598 -0.772831 -0.388756
			-0.504401 -0.790689 -0.346974
			-0.557965 -0.749362 -0.356556
			0.380658 0.106961 0.918509
			0.380658 0.106961 0.918509
			0.960209 0.278710 -0.017866
			0.959229 0.273272 0.072121
			0.811913 0.193968 0.550613
			-0.504177 -0.862948 -0.033557
			-0.492327 -0.865438 0.092899
			0.724367 -0.689195 0.017368
			-0.524302 -0.848322 -0.073870
			-0.597366 -0.781112 0.181706
			-0.669113 0.708853 0.223193
			-0.797889 -0.427017 0.425475
			-0.761792 -0.292259 0.578151
			-0.211262 0.976098 -0.050998
			0.374222 -0.692266 0.617030
			0.298381 0.940927 -0.160080
			0.273490 0.935069 0.225500
			0.783443 0.117574 0.610241
			0.299433 -0.933677 0.196435
			0.570472 0.810625 -0.132092
			0.721124 0.579036 -0.380392
			-0.201432 -0.761179 -0.616467
			-0.349114 -0.537462 -0.767629
			-0.300923 -0.507070 -0.807667
			0.376221 0.562084 -0.736559
			0.153364 -0.479280 -0.864159
			0.314780 -0.464629 -0.827668
			0.810117 0.071144 -0.581935
			0.880640 -0.183878 -0.436650
			0.793052 0.147244 -0.591090
			0.382402 -0.873170 0.302230
			0.539382 -0.082498 -0.838010
			0.630291 0.053290 -0.774528
			0.714761 0.115201 -0.689816
			0.483991 -0.206192 -0.850434
			0.808793 0.123538 -0.574972
			0.003635 -0.829237 0.558885
			0.468480 -0.264601 -0.842919
			0.769688 -0.613603 0.176271
			0.874553 -0.473434 -0.104960
			0.713079 -0.571078 -0.406680
			0.780019 0.508968 0.364037
			0.826402 0.462436 0.321268
			0.993570 0.105670 0.040650
			0.935691 -0.306781 -0.174263
			0.985040 -0.171724 -0.014406
			0.690494 -0.602989 -0.399528
			0.986548 -0.163440 -0.003309
			0.958693 -0.284004 0.015786
			0.983854 -0.178971 -0.000303
			0.261466 -0.703607 -0.660736
			0.052192 -0.589178 -0.806316
			0.623447 0.381775 0.682321
			0.020705 -0.824670 -0.565235
			-0.260240 -0.198953 -0.944824
			-0.099680 -0.063199 -0.993010
			-0.663445 -0.627905 -0.406911
			-0.608470 0.109283 -0.786016
			-0.286337 0.058940 -0.956314
			-0.588836 -0.801850 -0.101532
			-0.290080 -0.919539 0.265145
			0.037695 -0.997148 -0.065375
			0.159173 -0.525179 -0.835973
			0.090484 -0.399493 0.912260
			-0.473964 -0.694851 -0.540870
			-0.068892 -0.709406 0.701426
			-0.355017 -0.420572 0.834915
			-0.490558 -0.297771 0.818954
			0.037765 -0.670151 0.741263
			0.196489 -0.980457 -0.009815
			0.027221 -0.999572 0.010684
			0.786735 -0.340353 0.514983
			0.576184 0.165355 0.800418
			0.740203 0.220554 0.635182
			0.841942 -0.327513 0.428800
			0.004139 -0.229165 -0.973379
			-0.056354 -0.230657 -0.971402
			-0.151698 -0.270939 -0.950568
			-0.016350 -0.595268 -0.803361
			0.908206 -0.411501 0.076344
			0.338140 -0.289575 -0.895437
			-0.015426 -0.082152 -0.996500
			0.243391 0.916846 0.316471
			0.050389 0.929422 0.365561
			-0.408879 -0.582734 0.702310
			-0.247886 -0.811815 0.528686
			-0.089382 0.790749 0.605580
			-0.238782 0.684540 0.688759
			-0.565719 -0.269588 0.779285
			-0.025812 -0.996398 0.080778
			0.145331 -0.736717 -0.660400
			0.038183 -0.932394 -0.359421
			-0.300956 -0.952959 -0.035986
			0.478426 -0.355675 -0.802873
			0.707431 -0.264983 -0.655229
			0.624129 -0.253263 -0.739135
			0.729029 -0.348339 -0.589217
			0.510250 -0.260187 -0.819724
			-0.345526 -0.831998 -0.434041
			0.007095 -0.822513 -0.568702
			-0.214002 -0.975048 -0.059024
			-0.539052 -0.832756 -0.126254
			0.149145 -0.934365 -0.323601
			-0.244258 -0.956974 0.156646
			-0.687553 -0.700710 0.190463
			-0.008668 0.186343 -0.982447
			-0.351970 0.451252 -0.820054
			-0.770519 0.097177 0.629966
			-0.630733 -0.052604 0.774215
			-0.926275 -0.089537 0.366057
			-0.351320 -0.341135 0.871895
			0.432859 -0.901434 -0.007089
			0.217910 -0.537535 0.814599
			0.545234 -0.810611 0.213613
			0.762470 -0.578707 -0.289375
			0.135666 -0.926690 -0.350486
			0.521448 -0.811933 -0.262407
			0.172592 -0.154087 -0.972866
			0.343909 -0.883001 -0.319430
			0.833955 -0.551832 0.000973
			0.425259 -0.843736 0.327512
			0.252672 -0.957860 -0.136605
			0.292111 -0.831714 0.472148
			0.627570 -0.695199 0.350506
			0.285071 -0.780683 -0.556119
			0.416224 -0.800255 -0.431682
			0.681764 -0.654872 -0.326101
			0.598123 -0.719373 -0.353203
			0.638244 -0.675823 0.368655
			0.608545 -0.774732 0.171648
			0.134909 -0.990673 -0.019154
			-0.008259 -0.902323 0.430981
			-0.758651 -0.592972 0.269874
			0.209769 -0.041683 -0.976862
			-0.332136 -0.488808 -0.806692
			-0.314251 -0.846783 -0.429190
			0.183982 -0.982479 -0.029746
			0.815437 -0.541557 -0.204398
			0.901897 0.140896 0.408325
			0.899966 -0.270888 -0.341584
			0.963542 -0.167818 -0.208384
			0.054374 -0.948353 0.312521
			-0.001510 -0.285629 0.958339
			0.421455 0.157732 0.893027
			0.443696 -0.875794 -0.190048
			0.704520 -0.697053 -0.133299