<?xml version="1.0"?>
<VTKFile type="PolyData" version="0.1" byte_order="LittleEndian" header_type="UInt32" compressor="vtkZLibDataCompressor">
  <PolyData>
    <Piece NumberOfPoints="4891" NumberOfVerts="0" NumberOfLines="0" NumberOfStrips="0" NumberOfPolys="9680">
      <PointData Normals="Normals">
        <DataArray type="Float32" Name="Normals" NumberOfComponents="3" format="ascii" RangeMin="0.99999923085" RangeMax="1.0000007722">
          0.98766702414 0.1512349993 0.040520999581 0.62283098698 -0.64957600832 0.43604099751
          0.33290800452 -0.53090798855 -0.77930098772 0.67105001211 0.67458301783 0.3076210022
          0.66309201717 0.041999001056 0.74735897779 0.74755102396 0.55341500044 -0.36728599668
          0.32416200638 -0.59272497892 0.73728901148 -0.5295330286 -0.10644599795 -0.84158402681
          -0.04213200137 0.43324500322 -0.90029102564 -0.47253999114 -0.87870299816 0.067730002105
          -0.023847000673 0.88827097416 -0.45869898796 -0.25317698717 0.46231299639 -0.84980499744
          0.42088401318 0.89296299219 -0.15960399806 0.50562697649 0.020400000736 0.86251097918
          0.32569399476 -0.41278499365 0.85060697794 -0.73031401634 0.021576000378 -0.68277001381
          -0.49129900336 -0.86550301313 0.097617000341 -0.56549799442 -0.049176998436 -0.8232820034
          -0.38449400663 -0.2297089994 -0.89409101009 -0.17115199566 0.27808898687 -0.94518399239
          0.46419298649 0.88475102186 0.041719999164 0.3774510026 0.12092699856 0.91809999943
          0.1714220047 -0.33790901303 0.9254360199 -0.40711000562 -0.90744298697 0.10396499932
          -0.41681998968 -0.90573400259 0.076852999628 -0.29374200106 -0.26176899672 -0.91934299469
          -0.010211000219 0.34429600835 -0.93880599737 0.43800500035 0.89629900455 0.069279998541
          0.25813099742 0.20425100625 0.94427198172 0.014356999658 -0.29910698533 0.95411199331
          0.08575899899 0.13472400606 0.98716497421 0.027757000178 0.63718497753 -0.77021098137
          -0.18334600329 -0.33912500739 -0.92270201445 0.153816998 0.36946099997 -0.91642701626
          0.43224000931 0.89005202055 0.14483100176 0.1016689986 0.16311000288 0.98135501146
          0.01611699909 0.24398800731 0.96964401007 0.035239998251 0.36719799042 0.92947500944
          -0.2446179986 -0.70594799519 -0.66468000412 -0.028629999608 -0.34048101306 -0.9398149848
          0.28385901451 0.38200199604 -0.87948697805 0.4082930088 0.89872002602 0.15999700129
          0.40913799405 0.90749698877 0.095165997744 -0.12462200224 0.29370298982 0.94773799181
          -0.42696800828 -0.4490430057 0.78489398956 -0.26277700067 -0.88578301668 -0.38254100084
          0.11815000325 -0.35362800956 -0.92789399624 0.39946699142 0.40373700857 -0.82305699587
          0.54506498575 0.46509000659 -0.69756400585 0.1005859971 0.8524029851 0.51311898232
          -0.35111498833 0.27174800634 0.89603102207 -0.53803700209 -0.55781298876 0.63195002079
          -0.18795000017 -0.93779599667 -0.29191398621 0.34909701347 -0.22121199965 -0.91060197353
          0.54215097427 -0.19548599422 -0.8172249794 0.63702702522 0.59344798326 -0.49195098877
          -0.46891200542 0.40865901113 0.78302001953 -0.46876698732 0.38341400027 0.79577100277
          -0.60298299789 -0.59049999714 0.53639602661 -0.021331999451 -0.89268302917 -0.45017901063
          -0.2158640027 -0.95418000221 -0.20722700655 0.72144401073 -0.18403600156 -0.66756999493
          0.39311501384 0.82410997152 0.40780299902 -0.34726598859 0.70791202784 0.61503398418
          -0.60937899351 0.38459399343 0.69335800409 -0.78131902218 -0.10770300031 0.61476802826
          -0.9500169754 -0.18842700124 0.24892300367 0.039384000003 -0.85161197186 -0.52269101143
          0.87079298496 -0.22703899443 -0.43608799577 0.91420102119 0.40316000581 -0.041202999651
          0.20274400711 0.89443397522 0.39860099554 -0.80218201876 0.34386700392 0.48811799288
          -0.79909998178 0.53984999657 0.26457700133 -0.95730102062 -0.24118299782 -0.15938900411
          -0.0071120001376 -0.89496898651 -0.44607099891 0.87030601501 -0.44641900063 -0.20803399384
          0.99622398615 0.082676999271 0.026483999565 0.42887300253 0.79838699102 0.42266601324
          0.40600299835 0.83907198906 0.36210501194 -0.83642202616 0.54706501961 -0.03344200179
          -0.93466502428 -0.2019380033 -0.29261299968 -0.14285099506 -0.9265999794 -0.34785801172
          0.883449018 -0.45611301064 0.10714100301 0.98031198978 0.0013569999719 0.19744899869
          0.85260498524 0.11045599729 0.51074898243 0.077876001596 0.97327500582 0.21603399515
          -0.82697999477 0.41605201364 -0.37815898657 -0.83351999521 -0.16896399856 -0.52601802349
          0.048778001219 -0.99747502804 -0.051623001695 0.87401497364 -0.077469997108 0.47968301177
          0.97429901361 -0.2154110074 0.065869003534 0.84794098139 0.36994200945 -0.37965598702
          -0.32705301046 0.56366097927 -0.75849997997 -0.40606200695 0.30308699608 -0.86211997271
          -0.24544499815 -0.22207400203 -0.94363099337 0.63262498379 -0.77026200294 -0.08051200211
          0.97428697348 0.21528400481 0.066466003656 0.47357499599 -0.62440800667 0.62116098404
          0.42318999767 -0.75103402138 -0.50681197643 0.59916299582 0.14879800379 0.78667801619
          0.53200799227 0.58602797985 -0.6111779809 0.5092189908 0.86047297716 -0.016798000783
          0.30709698796 -0.47724598646 0.82336401939 -0.36463698745 0.11076500267 -0.92453801632
          -0.5145149827 -0.8473970294 0.13112300634 0.53314101696 0.31560900807 0.78495299816
          0.43038100004 0.86211997271 -0.26743501425 -0.23744599521 0.64768099785 -0.72396701574
          -0.10731299967 0.67488700151 -0.730076015 -0.049596000463 0.53773897886 -0.84165102243
          0.26922899485 -0.33403998613 0.90328997374 -0.57822299004 0.14375199378 -0.80311501026
          -0.55561298132 -0.82861399651 0.068502001464 0.40087598562 0.38741999865 0.83018302917
          0.39970898628 0.85506302118 -0.33030098677 -0.054499000311 0.27666899562 -0.95941901207
          -0.4277099967 0.033663999289 -0.90328902006 -0.24885900319 -0.026789000258 -0.96816897392
          0.084026001394 -0.30744498968 0.94784897566 -0.50374799967 -0.8598960042 -0.082557998598
          0.31159099936 0.49468201399 0.81129598618 0.41353499889 0.8047170043 -0.4259339869
          0.059990998358 0.24172100425 -0.96849000454 -0.1053519994 -0.092647999525 -0.99010998011
          -0.39501801133 -0.84129798412 -0.36902299523 -0.086020998657 -0.36797401309 0.92584902048
          0.12642499804 0.37997400761 0.91631698608 0.44047001004 0.62567400932 -0.64383101463
          0.040031000972 -0.045772999525 -0.99814999104 0.0055709998123 -0.10801400244 -0.99413400888
          -0.33454400301 -0.77656298876 -0.5338820219 -0.26472198963 -0.54225498438 0.79742199183
          0.013872999698 0.30541300774 0.95211899281 0.44969800115 0.80617600679 -0.38451600075
          0.1281169951 -0.050216000527 -0.99048697948 0.051615998149 -0.17347200215 -0.98348498344
          -0.38941499591 -0.9045060277 -0.17385199666 -0.29367700219 -0.43635201454 0.8504999876
          -0.079680003226 0.31582400203 0.94546598196 0.39748001099 0.90877097845 0.12705899775
          0.24250100553 -0.021723000333 -0.96990799904 0.12439399958 -0.26507499814 -0.95617002249
          -0.5135229826 -0.82406902313 0.23917500675 -0.19504399598 0.020026000217 0.98058998585
          -0.30505400896 0.21574600041 0.92757499218 0.17675599456 0.91716301441 0.35716900229
          0.46842899919 0.29612401128 -0.8323969841 0.26989299059 -0.4202849865 -0.86632502079
          -0.40081700683 -0.80558502674 0.43632298708 -0.20129600167 0.32355099916 0.92455101013
          -0.39489099383 0.3951689899 0.82939898968 0.080004997551 0.94539302588 0.31595999002
          0.58757299185 0.4568490088 -0.66786700487 0.47505900264 -0.3097139895 -0.82364797592
          -0.39297500253 -0.90670400858 0.15316200256 -0.44485598803 0.20312400162 0.8722640276
          -0.61043399572 0.31197300553 0.72804099321 -0.064355999231 0.9151250124 0.39800199866
          0.70385599136 0.52191901207 -0.48185899854 0.68039697409 -0.22741299868 -0.69666600227
          -0.15151999891 -0.97435200214 -0.16637599468 -0.67094302177 -0.061227999628 0.73897701502
          -0.8501830101 0.16896699369 0.49863699079 -0.47190898657 0.74058002234 0.47837498784
          0.65985202789 0.75078302622 -0.030318999663 0.89310497046 -0.078645996749 -0.44291999936
          0.069752000272 -0.92311602831 -0.37814199924 -0.84774702787 -0.33831399679 0.4084970057
          -0.97953802347 0.12349899858 0.15891100466 -0.49742001295 0.80499601364 0.32334798574
          0.62489902973 0.74659800529 0.22823899984 0.96920400858 -0.18858900666 -0.15836000443
          0.29930400848 -0.85123002529 -0.43107399344 -0.84308499098 -0.53232198954 -0.076421998441
          -0.99458897114 0.082290001214 -0.06341599673 -0.22481499612 0.93578398228 0.27160000801
          0.70614099503 0.63731402159 0.30853798985 0.92439597845 -0.37985900044 0.034623000771
          0.36484500766 -0.87976998091 -0.30478200316 -0.53258502483 -0.77117198706 -0.34877800941
          -0.81344598532 -0.39291399717 -0.42886400223 -0.45923998952 0.85892099142 -0.22661300004
          0.71951299906 0.53742098808 0.43986299634 0.86213600636 -0.32245200872 0.39082801342
          0.065333999693 -0.9802839756 -0.18647900224 -0.17818200588 -0.90680998564 -0.38203001022
          -0.65925097466 0.2970289886 -0.69076901674 -0.58799999952 -0.23197099566 -0.77488398552
          -0.36827099323 -0.82614600658 -0.42645099759 0.65028101206 0.75968402624 -0.0037010000087
          0.012120000087 0.60958498716 -0.79262799025 0.92392098904 0.029405999929 0.38145300746
          0.065977998078 -0.84807300568 -0.52575600147 -0.53570401669 0.0084929997101 -0.84436297417
          -0.85033297539 -0.15003399551 -0.50440502167 -0.55790901184 0.33085399866 -0.76109999418
          0.14432099462 0.533855021 -0.83316898346 -0.26320800185 -0.83712100983 -0.47953099012
          0.23311699927 -0.82095897198 -0.52123099566 -0.50670701265 -0.74191498756 -0.43910101056
          -0.98790597916 0.10249699652 -0.116347 -0.298514992 0.95428299904 -0.015277000144
          0.85840398073 0.22747899592 0.45977801085 0.58039498329 -0.76878499985 -0.26853701472
          0.38409900665 -0.92057698965 -0.070747002959 0.79244697094 -0.38701501489 0.47143098712
          0.50783199072 -0.71575701237 -0.47937399149 -0.74983197451 -0.53124600649 -0.39437198639
          -0.9907810092 0.13546000421 0.0018779999809 -0.058247998357 0.89457798004 0.44310000539
          0.68381398916 0.45395299792 0.57124900818 0.99519002438 -0.094099998474 0.027255000547
          0.9543120265 -0.26304298639 0.14176300168 0.80464297533 0.4037809968 0.43532800674
          0.97391200066 0.067028000951 -0.21680000424 0.30976599455 -0.67969697714 -0.66487300396
          -0.82166397572 -0.5412889719 -0.17853400111 -0.8219050169 0.33737400174 0.45896598697
          0.10103899986 0.86720097065 0.48759898543 0.89074802399 0.4472129941 0.081044003367
          0.86610901356 0.40462398529 0.29348599911 0.77286201715 0.56896799803 -0.28099599481
          0.85546302795 0.16800500453 -0.48985499144 0.3045629859 -0.70388400555 -0.64170700312
          -0.71559000015 -0.68484002352 0.13757100701 -0.69092601538 0.14685499668 0.70785301924
          0.71938097477 0.65104401112 0.2421399951 0.68335497379 0.72394400835 -0.094504997134
          0.57919800282 0.76394098997 -0.2844710052 0.73150002956 0.24785199761 -0.63519901037
          0.7194160223 0.20465800166 -0.66374397278 0.24821999669 -0.72262001038 -0.64514100552
          -0.653241992 -0.66864800453 0.35522601008 -0.40259501338 0.58022201061 0.70799702406
          -0.23666900396 0.67587298155 0.69798499346 0.57841598988 0.67484098673 -0.4582850039
          0.58597201109 0.23515200615 -0.77546197176 0.57267898321 0.1975210011 -0.79562801123
          0.061974998564 -0.78613698483 -0.61493700743 -0.6154500246 -0.57183998823 0.54242098331
          -0.54321998358 -0.55339097977 0.63140302896 -0.087936997414 0.59735298157 0.79714298248
          0.53337198496 0.68434202671 -0.4971820116 0.47060400248 0.2529810071 -0.84530097246
          0.44701999426 0.12120100111 -0.88627499342 -0.12977699935 -0.81815701723 -0.56015700102
          -0.20598700643 -0.82097899914 -0.5325049758 -0.4973089993 -0.57252401114 0.65184402466
          0.066389001906 0.63002002239 0.77373600006 0.50508201122 0.6596159935 -0.55659502745
          0.40846300125 0.28066000342 -0.86855500937 0.3517139852 0.1174549982 -0.92870998383
          0.26903000474 0.1020380035 -0.95771098137 -0.18524800241 -0.68463999033 -0.70494800806
          -0.46092700958 -0.67993402481 0.57029402256 0.16756400466 0.63972699642 0.75011402369
          0.48133799434 0.7023730278 -0.5243909955 0.31379601359 0.20433500409 -0.92724299431
          0.20071999729 0.20923599601 -0.95704299212 0.17442500591 0.23753599823 -0.95559000969
          -0.25379499793 -0.61910998821 -0.74316298962 -0.36000698805 -0.62161099911 0.69569700956
          0.19623699784 0.47301200032 0.85892397165 0.4956009984 0.73911398649 -0.45616900921
          0.5140349865 0.85562998056 -0.060541000217 0.17005099356 0.40695399046 -0.89748001099
          0.08135599643 0.29418700933 -0.95227897167 -0.39360401034 -0.62778002024 -0.67154097557
          -0.33039399981 -0.66442197561 0.67036002874 0.1169020012 0.1500390023 0.98174500465
          0.2111119926 0.047325000167 0.97631597519 0.54136997461 0.8405290246 -0.02072600089
          0.12481900305 0.4714139998 -0.87303501368 -0.01861000061 0.36612600088 -0.93037897348
          -0.5083450079 -0.56004297733 -0.65416902304 -0.32477301359 -0.72391998768 0.60865598917
          -0.25987398624 -0.78316599131 0.56490302086 0.25712400675 -0.10206899792 0.96097302437
          0.57464301586 0.80330199003 0.15649700165 0.078323997557 0.6296390295 -0.77293002605
          -0.14859199524 0.43140599132 -0.8898370266 -0.56683897972 -0.58231502771 -0.5827550292
          0.40581598878 -0.79278498888 -0.45475900173 0.023468000814 -0.77674502134 0.62937802076
          0.52371901274 -0.36938500404 0.7676410079 0.61677598953 0.63706898689 -0.46230998635
          0.3099539876 0.66543501616 -0.67906099558 0.051585998386 0.28541499376 -0.95701497793
          0.30470100045 -0.95072799921 -0.057206001133 0.32358300686 -0.4721429944 -0.81998497248
          0.6893209815 0.55657702684 -0.4637440145 0.13563199341 0.013446000405 0.99066799879
          -0.21669399738 -0.93070697784 0.29466700554 0.48144799471 0.11698900163 0.86863201857
          0.23601600528 0.24668900669 -0.93991500139 0.38505399227 0.50206798315 -0.77437800169
          -0.22172600031 -0.41774100065 -0.88109600544 0.19038300216 0.87241500616 -0.45016300678
          0.32786899805 0.89595198631 0.29961898923 0.42999300361 0.90040302277 -0.066180996597
          0.12499599904 0.029162000865 0.99172902107 -0.29357299209 -0.82872897387 0.47646901011
          0.013133999892 0.50312501192 -0.86411398649 -0.36973100901 -0.55842399597 -0.74260497093
          0.060263998806 0.39845600724 -0.91520601511 0.21884299815 0.63253802061 -0.74296998978
          0.26506200433 0.47118699551 -0.84126400948 0.46840199828 0.87550801039 -0.11868000031
          0.090689003468 0.1635619998 0.98235601187 -0.37547600269 -0.71881300211 0.58508598804
          -0.32801499963 -0.61891299486 -0.71368902922 0.18061700463 0.32970300317 -0.92664599419
          0.2707670033 0.30005401373 -0.91468697786 0.2826769948 0.37676000595 -0.8821259737
          0.49793300033 0.80856001377 -0.31351599097 -0.0034890000243 0.1842200011 0.98287898302
          -0.41575300694 -0.66356897354 0.62195301056 -0.26629400253 -0.69709402323 -0.66569298506
          -0.21136499941 -0.68233400583 -0.6998180151 0.36474099755 0.34927099943 -0.86311799288
          0.30497899652 0.23026399314 -0.92410302162 0.54857301712 0.78010600805 -0.30083501339
          -0.10825700313 0.16147099435 0.98092198372 -0.4688180089 -0.62818497419 0.62096202374
          -0.50889801979 -0.61840099096 0.59883499146 -0.10816299915 -0.69621300697 -0.70963901281
          0.45241799951 0.31758600473 -0.83334100246 0.40305501223 0.21845200658 -0.88872098923
          0.53626197577 0.82997697592 -0.1535000056 -0.15793000162 0.24738499522 0.95595997572
          -0.22369199991 0.34695899487 0.91081398726 -0.57716202736 -0.58991700411 0.56469601393
          -0.083601996303 -0.74138897657 -0.66584801674 0.55923098326 0.29656299949 -0.77415198088
          0.55544698238 0.31736400723 -0.76860898733 0.50439101458 0.86340397596 -0.011109000072
          0.51023197174 0.85918301344 0.038307998329 -0.32291299105 0.43901801109 0.8384450078
          -0.68383997679 -0.53832298517 0.492516011 -0.01706800051 -0.77551501989 -0.63109898567
          0.67301100492 0.22545099258 -0.7044339776 0.69110298157 0.41551300883 -0.5913760066
          0.7807019949 0.40644899011 -0.4746620059 0.44400200248 0.88422399759 0.14495199919
          -0.40671598911 0.47280400991 0.78168898821 -0.7369030118 -0.54786199331 0.39600598812
          0.13906699419 -0.79055601358 -0.59639102221 0.77983397245 0.22828200459 -0.5828769803
          0.91822898388 0.24258600175 -0.31306299567 0.83924502134 0.52236998081 -0.15099099278
          0.64504599571 0.75380402803 0.12528300285 -0.77651000023 0.036175001413 0.62906599045
          -0.8115940094 -0.5631930232 0.15533700585 0.17030799389 -0.72385001183 -0.66860800982
          0.99102902412 0.015424000099 -0.13275699317 0.29313498735 -0.69586199522 -0.65562802553
          0.85619002581 0.47802498937 0.19604000449 0.56172001362 0.72038197517 0.40684100986
          -0.8137549758 0.39664301276 0.42482501268 -0.8646479845 -0.46045899391 -0.20089900494
          -0.051392000169 -0.79220497608 -0.60808700323 0.91618299484 -0.352335006 -0.19096599519
          -0.85011202097 -0.40694800019 -0.33422100544 0.85108697414 0.37439700961 0.36807399988
          0.28592199087 0.78936201334 0.54328197241 -0.85864901543 0.45963600278 0.2268410027
          -0.84862202406 -0.4533829987 -0.27255100012 -0.21081499755 -0.8273910284 -0.52055901289
          0.79409301281 -0.60750299692 -0.018866999075 -0.94242602587 0.33434599638 -0.0067799999379
          0.75821501017 0.39096900821 0.52177900076 0.079795002937 0.85910898447 0.50553399324
          -0.83252602816 -0.13726200163 -0.53671300411 -0.32414600253 -0.67386901379 -0.66395002604
          0.79509598017 -0.45925098658 0.39612001181 -0.17885400355 0.98004102707 0.086776003242
          0.68628197908 0.32098200917 0.65267699957 -0.43526500463 0.13234700263 -0.89052200317
          0.38405299187 -0.67147600651 -0.63373798132 0.84684801102 0.52131998539 0.10523600131
          -0.087140001357 0.52222198248 -0.84834599495 0.68076199293 0.73214697838 -0.022893000394
          0.48690700531 -0.4281899929 0.76129800081 0.69803798199 0.71016401052 0.091709002852
          0.5692139864 0.78962600231 -0.22910000384 0.59215801954 -0.48590499163 0.64284199476
          -0.32847699523 0.58535498381 -0.74125802517 -0.61335599422 0.57097297907 -0.5456969738
          0.35597699881 -0.39853399992 0.84525197744 -0.63514298201 -0.76424998045 -0.11187300086
          -0.75183802843 -0.65908098221 -0.018765000626 0.6819909811 0.65837299824 0.31848499179
          -0.13102500141 0.65158098936 -0.74717801809 0.51124298573 0.7845749855 -0.35081601143
          0.70734602213 -0.58048498631 0.40336000919 -0.73734301329 0.57808202505 -0.34949499369
          -0.69414502382 -0.70646697283 0.13808600605 -0.842204988 -0.17501999438 -0.50995999575
          -0.91907799244 -0.32263100147 -0.22628599405 -0.97961300611 -0.20073500276 -0.0079579995945
          0.087070003152 -0.52119100094 0.8489869833 -0.64607197046 -0.72448897362 -0.24022500217
          -0.61938500404 -0.26423200965 -0.7392860055 -0.70739597082 -0.14675299823 -0.69141501188
          0.62656402588 0.63803702593 0.44757699966 -0.013203999959 0.70589101315 -0.70819801092
          0.77159899473 -0.55776298046 0.30583399534 0.51840400696 0.74440199137 -0.42085900903
          -0.78687500954 0.54298502207 -0.29324901104 -0.61775100231 -0.72506898642 0.304399997
          -0.96032398939 -0.2509920001 0.12157899886 -0.50249701738 -0.76683300734 0.39932900667
          -0.20857200027 -0.83215200901 0.51383000612 -0.62977701426 -0.68261998892 -0.37068900466
          -0.57234102488 -0.35994699597 -0.73679202795 -0.060263998806 0.56726300716 -0.82132899761
          0.078189998865 -0.29444900155 0.95246297121 0.56794697046 0.80010801554 0.19303800166
          0.90333002806 -0.40877899528 0.12997600436 0.60644501448 0.63625299931 -0.47687199712
          -0.64558601379 0.7242680192 -0.24218699336 -0.9573379755 -0.16032600403 0.24041500688
          -0.42276400328 -0.76820099354 0.4807690084 -0.5643889904 -0.70523899794 -0.42907199264
          -0.49092000723 -0.40679201484 -0.77040100098 0.029725000262 0.44600999355 -0.89453399181
          -0.54756897688 -0.68416798115 -0.48175001144 -0.33880600333 -0.62598598003 0.70239001513
          0.53116798401 0.68867701292 0.49354299903 0.63389897346 -0.76935201883 0.079173997045
          0.29392001033 0.76875901222 -0.56799799204 -0.67068600655 0.74171298742 0.006450000219
          -0.8758289814 -0.0054540000856 0.4825899899 -0.37771001458 -0.43147701025 -0.81924498081
          0.13899800181 0.4620859921 -0.87587398291 -0.3141990006 -0.45407000184 -0.83372700214
          -0.51015102863 -0.79338800907 -0.33208701015 -0.089455999434 -0.28158500791 0.95535701513
          0.45936799049 0.75284999609 0.47137799859 -0.19091700017 -0.98048299551 0.046936001629
          0.50544202328 0.43846601248 -0.74315202236 -0.52410399914 0.81805700064 0.23685100675
          -0.80140298605 -0.071824997663 0.59379601479 0.1884649992 0.42060598731 -0.88745200634
          0.34371799231 0.26654800773 -0.90044999123 -0.2563970089 -0.46408700943 -0.84786999226
          -0.39139398932 -0.91242802143 -0.1195230037 -0.13436500728 -0.30822399259 0.94177699089
          0.37860199809 0.78673899174 0.48754701018 -0.35874399543 -0.6216840148 0.69628399611
          0.95381301641 0.27060198784 -0.13044400513 0.091388002038 0.92812001705 0.36088898778
          -0.36745598912 0.3824160099 0.8477820158 0.39199000597 -0.34786498547 -0.85166501999
          0.94423800707 0.31343999505 0.10085099936 -0.08266799897 -0.64791297913 -0.75721502304
          0.32847800851 -0.93313097954 -0.14618200064 0.31472700834 -0.14485499263 0.93806397915
          -0.17376799881 -0.77691799402 0.60514801741 0.83771902323 -0.54447597265 0.042114999145
          -0.81484401226 -0.24145199358 0.52700102329 -0.81046897173 -0.55389100313 0.19064599276
          0.58770400286 -0.64403700829 0.48971399665 -0.90449500084 -0.33322998881 0.26617100835
          0.9534509778 -0.2940979898 0.066616997123 0.47179099917 -0.85313200951 -0.22266100347
          0.73686999083 0.42366600037 -0.52681100368 0.6562409997 0.40792998672 -0.63477700949
          -0.459454 -0.38673201203 0.79958802462 -0.97140598297 -0.16849699616 0.16727000475
          -0.86027401686 0.50144100189 -0.092119000852 -0.069485001266 0.99414199591 -0.082787998021
          0.031096000224 0.90469998121 -0.42491400242 -0.51263999939 0.085715003312 0.85431498289
          -0.72826302052 0.26666599512 -0.63128602505 -0.41589999199 -0.90204197168 0.11552599818
          -0.96877998114 0.1572329998 -0.19168800116 0.95180302858 -0.10229299963 0.28914800286
          0.99528598785 -0.047793999314 0.084392003715 -0.85183101892 0.47103399038 -0.22915400565
          0.87812197208 0.34120199084 -0.33538600802 0.15233999491 -0.82901901007 0.53807002306
          0.77225601673 0.13380299509 0.62106198072 0.30341500044 0.8937330246 0.33042600751
          0.27632600069 0.82103699446 -0.49954101443 0.59216302633 0.80515700579 -0.032637000084
          0.57394701242 0.81721097231 0.052448000759 -0.45831501484 0.44027900696 -0.7720760107
          0.69452601671 -0.22138600051 0.68455898762 -0.68315899372 -0.68057101965 -0.26479700208
          0.20967499912 0.86017102003 -0.46491000056 0.91870397329 0.30644699931 0.24914500117
          0.92469102144 0.36668500304 -0.1024120003 0.75707000494 0.45993199944 0.46401301026
          0.82856297493 0.54380601645 0.13326099515 0.69401800632 0.43595901132 0.5729560256
          0.50463300943 0.86273902655 0.03204799816 -0.37065500021 0.3940320015 -0.84104299545
          -0.060642998666 -0.86218702793 0.50294697285 0.79498898983 0.29798400402 0.52839297056
          -0.66179299355 -0.51658701897 -0.54329401255 0.66106498241 0.18931600451 0.7260529995
          0.54685902596 0.25974598527 0.79591298103 0.58248502016 0.41256698966 0.70035600662
          0.51231098175 0.8328909874 0.20935599506 -0.26667800546 0.29328298569 -0.91807800531
          -0.57868599892 -0.55917799473 -0.59366899729 0.019264999777 -0.74380999804 0.66811299324
          -0.06983499974 -0.69200998545 0.71850198507 0.44286799431 0.31147500873 0.84074497223
          0.43278300762 0.29014798999 0.85352998972 0.49829700589 0.80215299129 0.32901400328
          -0.18389299512 0.19165299833 -0.96408098936 -0.5001450181 -0.65561699867 -0.56570500135
          -0.45759999752 -0.63745802641 -0.61987900734 -0.15961399674 -0.69068497419 0.70532000065
          0.36252000928 0.32398200035 0.87384998798 0.28921800852 0.19637300074 0.93690502644
          0.47879099846 0.83231198788 0.27931401134 -0.11024799943 0.15663200617 -0.98148500919
          -0.002787000034 0.19950599968 -0.97989302874 -0.40915900469 -0.6398550272 -0.65051800013
          -0.23076599836 -0.67399400473 0.70176899433 0.25381499529 0.29472500086 0.92125797272
          0.22668200731 0.26254200935 0.93791598082 0.46057000756 0.86999100447 0.17604599893
          0.44742798805 0.88794702291 0.10657399893 0.054730001837 0.16103999317 -0.98542898893
          -0.35236400366 -0.72254502773 -0.59478497505 -0.26851299405 -0.61202400923 0.74386000633
          0.15940000117 0.30882400274 0.93766701221 0.23308500648 0.44389000535 0.86523598433
          0.17679700255 0.5799869895 0.79520899057 0.39896801114 0.91122698784 -0.10241699964
          0.12735499442 0.081623002887 -0.9884930253 -0.28829601407 -0.81597900391 -0.50106298923
          -0.31288400292 -0.54104197025 0.78062599897 0.059684999287 0.40353301167 0.91301602125
          0.036038998514 0.56657898426 0.82321900129 0.18412199616 0.81064397097 0.55583798885
          0.33235400915 0.89409697056 -0.30021798611 0.11874300241 -0.009606000036 -0.99287897348
          -0.23504799604 -0.9324939847 -0.27423900366 -0.23087899387 -0.36690801382 0.90115100145
          0.43003100157 0.0074780001305 0.90278297663 0.16526600718 0.65318697691 0.73894101381
          0.22732999921 0.86352401972 0.45016399026 0.56290602684 0.80883097649 0.17008699477
          0.62862098217 -0.56801700592 -0.53121799231 0.10757999867 -0.97946202755 0.17052899301
          -0.14171299338 -0.63779699802 0.75705498457 0.27701100707 -0.85997599363 0.42860999703
          0.68288898468 -0.057018000633 0.72829401493 0.34562599659 0.34189501405 0.87387102842
          -0.2753469944 -0.55356097221 0.78597301245 0.96852701902 0.15663099289 -0.19344599545
          0.13594099879 -0.39616701007 -0.90805900097 -0.37958699465 -0.8652780056 0.32742500305
          0.45572799444 0.76906198263 -0.44817000628 0.4514349997 0.75207102299 -0.48020398617
          0.19826699793 0.4240719974 0.88365900517 -0.33537200093 -0.46513798833 0.81925100088
          -0.22161200643 -0.24588300288 -0.94362598658 -0.53412997723 -0.80815398693 0.24817700684
          0.50757300854 0.72520399094 -0.46524098516 -0.14511300623 -0.32995301485 -0.93277698755
          0.14830300212 0.39770999551 0.90544599295 -0.36633101106 -0.42554399371 0.82747501135
          -0.54901599884 -0.71765702963 0.42842701077 0.58170801401 0.73894697428 -0.33996099234
          -0.22473199666 -0.48511600494 -0.84507900476 0.039163000882 0.44077000022 0.89676499367
          -0.47465801239 -0.38243699074 0.79274302721 -0.61136698723 -0.68879002333 0.38961398602
          0.59671902657 0.72377198935 -0.34652599692 0.0021649999544 -0.54337698221 -0.83948600292
          0.0031999999192 0.591843009 0.80604702234 -0.59255099297 -0.34277400374 0.72896498442
          -0.60001498461 -0.68900698423 0.40651100874 0.69542497396 0.59915798903 -0.39672899246
          0.080500997603 -0.59397602081 -0.8004450202 -0.027848999947 0.63648897409 0.77078300714
          -0.61072897911 -0.26262900233 0.74701797962 -0.65186798573 -0.66145497561 0.37087199092
          0.70665198565 0.68508398533 -0.17692700028 0.3782120049 -0.3485609889 -0.8575900197
          0.0056119998917 -0.6543290019 -0.75618898869 -0.11484400183 0.59811401367 0.79313999414
          -0.69729501009 -0.18971799314 0.69122201204 -0.71635699272 -0.68536698818 0.13078300655
          0.73059600592 0.68271100521 -0.011594999582 0.47971299291 -0.43445000052 -0.7623180151
          -0.71901899576 -0.6938650012 -0.039533000439 -0.31668999791 0.56931698322 0.75867402554
          -0.82927799225 -0.20436799526 0.52012699842 0.65171998739 0.73899698257 0.17071899772
          0.62546497583 -0.48754900694 -0.6091709733 -0.68154197931 -0.69686502218 -0.22333799303
          -0.94408899546 -0.23006999493 0.2361419946 -0.66074198484 0.47608700395 0.58031201363
          0.6405299902 0.69439697266 0.32792499661 0.73108398914 -0.53951901197 -0.41765499115
          -0.62822401524 -0.71297901869 -0.31144100428 -0.97988402843 -0.19666600227 0.033907998353
          -0.74964702129 0.54125797749 0.38087800145 0.28666299582 0.85294401646 0.43624600768
          0.71626400948 -0.63002198935 -0.30006501079 0.96197402477 -0.26897799969 -0.047508001328
          -0.55477899313 -0.73122799397 -0.39689600468 -0.97541302443 -0.19947299361 -0.093698002398