<?xml version="1.0"?>
<VTKFile type="PolyData" version="0.1" byte_order="LittleEndian" compressor="vtkZLibDataCompressor">
	<PolyData>
		<Piece NumberOfPoints="1459" NumberOfVerts="0" NumberOfLines="0" NumberOfStrips="0" NumberOfPolys="1796">
		<PointData Normals="Normals">
		<DataArray type="Float32" Name="Normals" NumberOfComponents="3" format="ascii">
			0.843922 -0.186843 0.502877
			0.904195 -0.177432 0.388521
			0.991294 -0.123777 -0.044896
			0.898479 -0.075982 0.432391
			0.866423 -0.386424 0.316209
			0.845510 -0.434399 -0.310501
			0.652135 -0.236182 0.720374
			0.672160 -0.537215 0.509511
			0.906730 -0.318848 0.276003
			0.920969 -0.387407 0.041624
			0.759033 -0.280014 -0.587760
			0.880452 -0.261774 -0.395321
			0.965755 -0.209322 -0.153302
			0.857351 -0.468002 -0.214297
			0.745726 -0.650322 -0.144824
			0.971237 -0.098009 -0.217011
			0.790480 -0.216925 -0.572787
			0.704217 -0.646479 0.293502
			0.850789 -0.522438 -0.056711
			0.991910 -0.028280 -0.123755
			0.993116 0.093783 -0.070178
			0.999058 -0.043040 0.005541
			0.959682 -0.279200 0.032531
			0.676268 0.734573 0.055359
			0.300838 0.951833 0.059252
			0.652111 0.459000 -0.603382
			0.703618 0.710129 -0.025247
			0.979278 -0.171440 -0.107814
			0.896620 -0.131531 -0.422814
			0.136440 0.852673 -0.504314
			0.780157 -0.509631 0.362811
			0.891766 -0.363189 -0.269904
			0.686323 -0.384100 0.617599
			0.666235 0.415987 0.618939
			0.785564 -0.544365 -0.294204
			0.979781 -0.169631 -0.106090
			0.995027 -0.094666 -0.030972
			0.875543 -0.468332 0.118701
			0.778385 -0.562987 0.277781
			0.744032 -0.609535 0.273649
			0.950400 -0.168121 0.261676
			0.977773 0.206503 -0.036298
			0.983668 0.165082 -0.071726
			0.978835 0.203203 0.024287
			0.978767 0.070907 -0.192322
			-0.544374 0.784798 0.296224
			-0.273814 0.949768 -0.151550
			-0.860794 0.361156 0.358608
			-0.687295 0.700790 -0.191100
			-0.869386 0.373061 0.324027
			-0.295689 0.926912 0.231091
			0.934238 -0.227225 0.274898
			0.948347 -0.224778 0.223858
			0.879883 0.394248 0.265281
			-0.753278 0.587441 0.295780
			-0.822041 0.534555 0.196214
			-0.710592 0.519141 0.474923
			0.829324 -0.189037 0.525820
			0.981478 -0.027956 0.189525
			0.855596 -0.463288 0.230912
			0.885866 -0.180403 0.427429
			0.988173 -0.153223 -0.006126
			0.195309 0.773608 0.602814
			0.889641 -0.435383 -0.137772
			0.983580 0.093065 0.154626
			0.923622 -0.375246 -0.078186
			0.968549 -0.220445 -0.115398
			0.779772 -0.604997 -0.161041
			0.891852 -0.352103 -0.283944
			0.934385 -0.349699 -0.068085
			0.966295 -0.209782 -0.149217
			0.983949 0.103936 -0.145061
			0.984608 0.174598 -0.007870
			0.974132 0.183058 0.132504
			0.961343 0.051514 -0.270493
			0.958319 0.120630 0.258986
			0.885596 0.060027 -0.460560
			0.916377 0.039789 -0.398335
			-0.821613 0.569745 -0.018505
			-0.699868 0.635995 0.325109
			-0.826458 0.542677 -0.149898
			-0.733843 0.667612 -0.125572
			-0.759228 0.570851 -0.312572
			0.958505 -0.265116 -0.104794
			0.984792 0.080855 -0.153775
			0.135188 0.990237 0.033985
			-0.736949 0.631663 0.240641
			-0.686718 0.436914 0.580969
			-0.771307 0.439334 0.460512
			-0.704480 0.699143 -0.122097
			-0.748450 0.632896 -0.198153
			-0.533399 0.844933 -0.039681
			-0.630223 0.774151 0.059239
			-0.811072 0.554922 0.184998
			0.505114 0.660451 -0.555575
			0.991485 -0.088593 0.095441
			0.785515 -0.603316 -0.137752
			0.796662 -0.543112 -0.265252
			0.975753 -0.200311 -0.088212
			0.960154 -0.206437 -0.188384
			0.908688 -0.232688 -0.346615
			0.919411 0.338601 -0.200084
			-0.693810 0.502426 -0.515942
			0.957742 0.069646 0.279070
			0.947071 0.063205 0.314741
			0.936124 -0.349586 0.038217
			0.923622 -0.375246 0.078186
			0.902811 -0.358056 0.238176
			0.907031 -0.138752 -0.397545
			0.846562 -0.088589 -0.524867
			0.854683 -0.447298 -0.263519
			0.934668 -0.220464 -0.278911
			0.757817 -0.230680 -0.610329
			0.977414 0.051808 -0.204885
			0.998699 -0.050977 -0.000791
			0.944804 0.071554 -0.319727
			0.976770 -0.043688 0.209791
			0.945912 0.064515 0.317945
			0.877764 0.084814 -0.471527
			0.940451 0.072263 0.332158
			0.872485 0.091295 -0.480036
			0.869225 -0.008267 -0.494348
			0.866694 0.023271 -0.498298
			0.926933 -0.198402 -0.318484
			0.862680 -0.258502 -0.434696
			-0.780673 0.607696 -0.145792
			-0.740263 0.446827 0.502350
			-0.721201 0.634454 0.278098
			-0.572592 0.706211 0.416417
			-0.779338 0.483181 -0.398958
			-0.747723 0.412224 -0.520559
			-0.606698 0.654614 -0.450997
			-0.578469 0.815616 0.011981
			-0.748451 0.658539 0.078409
			-0.760932 0.425803 -0.489565
			-0.714871 0.383852 -0.584481
			-0.789247 0.527127 -0.315002
			-0.752303 0.637134 0.167631
			0.786956 0.046754 -0.615236
			-0.671305 0.691403 0.267042
			-0.720503 0.580160 0.379856
			-0.859804 0.469549 0.200652
			-0.689384 0.598958 0.407430
			-0.730513 0.680233 0.060286
			-0.715519 0.685663 0.133789
			-0.729806 0.498835 0.467490
			-0.323453 0.735325 0.595546
			0.925359 0.358468 -0.123336
			-0.696938 0.475779 0.536574
			0.783294 -0.587407 0.203477
			0.963134 -0.205113 0.174073
			0.979184 -0.179402 0.094944
			0.964757 -0.221663 0.141804
			0.969204 0.048001 0.241537
			0.162676 0.986448 0.021383
			-0.830938 0.524102 -0.186704
			-0.615945 0.717017 -0.326342
			0.528349 0.845679 0.075327
			0.934114 0.071135 0.349815
			0.944620 0.054594 0.323593
			0.836866 -0.202683 0.508503
			0.873716 -0.093724 0.477322
			0.910335 -0.069764 0.407951
			0.935872 -0.008021 0.352250
			0.689029 -0.448625 0.569188
			0.913419 -0.124366 -0.387556
			0.921952 -0.088761 -0.376996
			0.896362 -0.374945 -0.236538
			0.980073 -0.159153 -0.118862
			0.874711 -0.475155 -0.095440
			0.985335 -0.167573 -0.032169
			0.980626 -0.139771 -0.137250
			0.962858 -0.270005 -0.001295
			0.946966 -0.098921 -0.305730
			0.956316 -0.257878 0.137690
			0.863109 -0.050791 -0.502457
			0.944883 -0.105635 0.309899
			0.902431 -0.043591 0.428624
			0.803318 -0.057303 -0.592787
			0.870721 -0.159178 0.465304
			0.701130 0.421923 -0.574803
			0.814077 0.002312 -0.580752
			0.789171 0.091558 -0.607310
			0.856215 -0.352109 -0.378042
			0.772789 -0.147941 -0.617180
			0.754535 -0.565810 -0.332471
			0.778238 -0.627044 -0.034070
			-0.784719 0.615956 -0.069389
			-0.780063 0.586725 -0.217383
			-0.726487 0.683810 0.067976
			-0.593163 0.689856 -0.415038
			-0.801890 0.555447 -0.220113
			-0.685519 0.607116 -0.401839
			-0.734020 0.657094 -0.171587
			-0.602678 0.594637 0.532152
			-0.756853 0.609855 0.235054
			-0.515735 0.604711 0.606912
			-0.810399 0.585533 0.020112
			-0.631433 0.395157 0.667191
			-0.672257 0.367538 0.642640
			-0.535235 0.517798 0.667389
			0.211449 0.713236 0.668269
			0.986248 0.068066 0.150604
			0.881114 0.427307 -0.202600
			-0.615573 0.532621 0.580849
			0.881207 -0.150119 0.448261
			0.830730 -0.088811 0.549545
			0.751405 -0.168447 0.637978
			0.777665 0.048994 0.626767
			-0.676201 0.428512 -0.599274
			-0.718456 0.518515 -0.463641
			-0.296325 0.595267 -0.746893
			0.864937 0.457996 -0.205239
			0.782712 0.058960 0.619585
			0.691819 0.209678 0.690957
			0.875148 -0.246665 0.416259
			0.742222 -0.118707 0.659557
			0.652025 -0.503540 0.566843
			0.747140 -0.548621 0.375228
			0.781861 -0.618561 0.077945
			0.772976 -0.204689 0.600509
			0.900557 -0.151047 0.407655
			0.780052 -0.444543 0.440342
			0.884661 -0.112638 0.452424
			0.969851 -0.151436 0.190937
			0.945921 -0.197259 0.257530
			0.959311 -0.102955 -0.262911
			0.760194 -0.269241 -0.591282
			0.682338 0.149466 -0.715594
			0.813250 -0.581812 -0.010893
			0.860191 -0.509963 -0.002967
			0.764726 -0.603212 -0.226563
			0.864863 -0.501346 0.025786
			0.729980 -0.428670 -0.532327
			0.816945 -0.521034 0.247234
			0.672202 -0.309105 -0.672755
			0.732710 -0.426122 0.530618
			0.719868 -0.340445 0.604886
			0.630807 -0.329412 -0.702546
			0.663276 -0.315963 0.678405
			0.705435 0.307067 -0.638805
			0.595365 0.240376 -0.766655
			0.618097 -0.386081 -0.684761
			0.673614 -0.196666 -0.712437
			0.715518 -0.162878 -0.679341
			0.736810 -0.613915 -0.283230
			0.523002 -0.338994 -0.782018
			0.586306 -0.363123 -0.724146
			-0.781179 0.615954 -0.101785
			-0.694885 0.593909 -0.405472
			-0.603803 0.523627 -0.601030
			-0.823842 0.309544 0.474834
			-0.916251 0.331627 0.224739
			-0.506363 0.559955 0.655779
			-0.720186 0.289277 0.630596
			-0.946169 0.323600 0.006879
			-0.926417 0.309238 -0.214764
			-0.746722 0.470861 0.469783
			-0.785812 0.424800 0.449492
			-0.576085 0.813500 0.079644
			-0.643592 0.548720 0.533569
			0.461158 0.877001 -0.134919
			0.003118 0.919377 -0.393366
			0.946296 0.010016 -0.323147
			0.588252 0.377600 -0.715107
			0.870017 -0.044186 0.491038
			0.985051 -0.132448 0.110145
			-0.673471 0.513120 -0.532114
			-0.639961 0.356313 -0.680802
			-0.632851 0.387176 -0.670518
			-0.516755 0.470518 -0.715247
			0.187389 0.678797 -0.710014
			0.983069 0.109679 -0.146788
			0.863657 0.459545 0.207160
			0.639660 -0.442115 0.628784
			0.436899 0.059669 0.897529
			0.709045 -0.336706 0.619584
			0.611282 0.091458 0.786111
			0.559995 -0.355815 0.748199
			0.753810 -0.609184 0.246304
			0.628306 -0.168090 0.759590
			0.755212 -0.343497 0.558270
			0.580584 -0.307319 0.753974
			0.991263 -0.121240 -0.051947
			0.933645 -0.195930 0.299862
			0.651556 0.119051 0.749201
			0.907924 -0.291378 -0.301286
			0.377961 -0.102353 -0.920146
			0.699113 0.064953 -0.712055
			0.641293 -0.045876 -0.765923
			0.959194 -0.059528 -0.276411
			0.446190 -0.894934 -0.002772
			0.540404 -0.841402 -0.002361
			0.359603 -0.922670 -0.139161
			0.543240 -0.839229 0.024180
			0.409571 -0.799907 -0.438634
			0.468116 -0.866122 0.175216
			0.417251 -0.665419 -0.618966
			0.379321 -0.824549 0.419804
			0.336213 -0.665276 -0.666610
			0.388078 -0.696824 0.603185
			0.397302 -0.604516 0.690443
			0.219462 -0.708958 -0.670235
			0.322778 -0.620072 0.715070
			0.862839 0.067895 -0.500899
			0.818615 -0.038821 -0.573029
			0.696802 -0.226432 -0.680584
			0.650655 -0.276633 -0.707193
			0.702567 0.032412 -0.710879
			0.650229 -0.349729 -0.674457
			0.556532 -0.172680 -0.812683
			0.497410 -0.498455 -0.710019
			0.868375 -0.225488 -0.441678
			0.094328 -0.780694 -0.617754
			-0.841441 0.286989 -0.457837
			-0.755618 0.260395 -0.601030
			-0.636315 0.533223 -0.557473
			-0.938120 -0.110983 0.328045
			-0.976310 -0.178911 0.121697
			-0.859012 -0.042800 0.510162
			-0.969421 -0.245177 0.010588
			-0.458694 0.593475 0.661352
			-0.652707 0.369773 0.661243
			-0.389097 0.594245 0.703900
			-0.723000 0.042794 0.689521
			-0.965124 -0.238704 -0.107505
			-0.935343 -0.172896 -0.308609
			0.283692 0.888212 0.361384
			-0.302411 0.243201 0.921629
			0.224229 0.936502 0.269601
			0.043636 0.779203 -0.625251
			0.581443 0.050854 -0.811996
			0.792114 -0.023643 -0.609915
			0.962375 -0.202985 -0.180642
			-0.622665 0.616370 -0.482054
			-0.739587 0.457674 -0.493503
			-0.742019 0.417758 -0.524296
			-0.586033 0.788916 -0.184869
			0.013901 0.945964 0.323973
			0.522097 0.852639 -0.020512
			0.948832 0.028849 0.314460
			0.588252 0.377600 0.715107
			0.621418 -0.432758 0.653116
			0.819215 0.073422 0.568767
			0.730813 -0.177387 0.659125
			0.826441 0.290759 0.482135
			0.616258 -0.476117 0.627327
			0.535999 -0.298345 0.789744
			0.653689 -0.185165 0.733760
			0.696531 0.088890 0.712000
			0.872226 -0.230612 0.431324
			0.585273 -0.363371 0.724857
			0.212699 -0.701151 0.680549
			0.902022 -0.292569 0.317426
			0.381225 -0.103319 0.918691
			0.583607 0.027456 0.811572
			0.947694 -0.027335 0.318008
			0.946918 -0.320022 -0.030518
			0.695794 -0.219801 -0.683782
			0.720406 -0.171664 -0.671972
			0.749870 -0.235193 -0.618368
			0.441146 -0.894403 -0.073710
			0.227694 -0.973725 -0.003966
			0.339571 -0.924890 -0.171085
			0.221645 -0.973778 0.051280
			0.094649 -0.964769 -0.245485
			0.414687 -0.880992 0.227789
			0.000152 -0.942327 -0.334692
			0.281899 -0.891414 0.354843
			-0.143783 -0.922620 -0.357910
			0.031407 -0.930019 0.366166
			-0.213347 -0.876037 -0.432483
			-0.074831 -0.901295 0.426695
			-0.196421 -0.886924 0.418073
			-0.270472 -0.896231 -0.351588
			-0.202901 -0.876989 0.435569
			0.795239 -0.174328 -0.580694
			0.796580 -0.156898 -0.583819
			0.632631 -0.329788 -0.700726
			0.729085 -0.172093 -0.662434
			0.336632 -0.620323 -0.708434
			0.689919 0.054622 -0.721823
			0.567858 -0.011577 -0.823045
			0.349077 0.086729 -0.933072
			0.674393 0.126761 -0.727410
			0.583293 -0.136107 -0.800777
			-0.017233 -0.792310 -0.609876
			-0.398541 -0.895185 -0.199523
			-0.871596 -0.119991 -0.475313
			-0.775984 -0.061309 -0.627766
			-0.703129 0.319290 -0.635345
			-0.474876 0.597143 -0.646462
			-0.418048 0.596664 -0.685002
			-0.799503 -0.511881 0.314281
			-0.793766 -0.598678 0.107334
			-0.747682 -0.419464 0.514802
			-0.742063 -0.668593 0.048224
			-0.726749 -0.333787 0.600351
			-0.775518 -0.628337 -0.061359
			-0.431916 0.473269 0.767767
			-0.562348 0.384514 0.732062
			-0.304692 0.581461 0.754365
			-0.230727 0.479950 0.846412
			-0.583105 0.076145 0.808821
			-0.313882 0.332074 0.889497
			-0.726902 -0.310746 0.612413
			-0.786592 -0.560026 -0.260087
			-0.765226 -0.489709 -0.417869
			-0.185534 0.370971 0.909922
			0.221498 0.940812 0.256540
			0.099349 0.930326 0.353020
			-0.320759 -0.009832 0.947110
			0.707208 0.646522 0.286122
			0.048687 0.793755 0.606285
			0.998792 0.044668 -0.020457
			-0.281770 0.228478 -0.931882
			0.295702 0.861838 -0.412063
			0.220644 0.934359 -0.279804
			0.041419 0.787154 0.615364
			0.594394 0.081273 0.800057
			0.784950 -0.024654 0.619068
			0.664010 -0.264029 0.699557
			0.818830 -0.090078 0.566924
			0.678386 0.002558 0.734701
			0.840064 0.038889 0.541091
			0.557027 -0.041310 0.829467
			0.689730 -0.190137 0.698657
			0.716866 -0.234890 0.656452
			0.378474 0.071640 0.922835
			0.674393 0.126761 0.727410
			0.590792 -0.107848 0.799584
			0.496540 -0.410613 0.764752
			0.718384 -0.182345 0.671324
			0.085733 -0.715861 0.692959
			-0.287728 -0.876058 0.386955
			0.954377 -0.291568 0.064434
			0.746219 -0.207614 0.632498
			0.770208 0.179681 -0.611959
			0.124977 0.102244 -0.986877
			0.040505 -0.003425 -0.999174
			0.056945 0.354200 -0.933434
			-0.054255 -0.998520 0.003765
			-0.225211 -0.973330 0.043688
			-0.158003 -0.986891 0.032880
			-0.284467 -0.958619 0.011266
			-0.374051 -0.917053 0.138202
			-0.129640 -0.989513 0.063700
			-0.495818 -0.848825 0.183468
			-0.233223 -0.970937 0.053738
			-0.615196 -0.770047 0.168998
			-0.466123 -0.880365 -0.087676
			-0.602746 -0.796772 0.043029
			-0.560218 -0.813495 -0.156147
			-0.545629 -0.828258 0.127581
			-0.576698 -0.794380 -0.190734
			-0.512385 -0.856234 -0.065768
			-0.597446 -0.752683 0.276634
			-0.559281 -0.824632 -0.084779
			0.684898 -0.165630 -0.709565
			0.707600 -0.037840 -0.705599
			0.512400 -0.394538 -0.762749
			0.675913 -0.085900 -0.731958
			0.195319 -0.645105 -0.738708
			-0.095632 -0.773500 -0.626540
			0.781783 0.250629 -0.570965
			0.590443 0.004157 -0.807068
			0.766756 -0.161245 -0.621357
			0.525202 0.337695 -0.781105
			0.471685 0.338374 -0.814258
			0.491054 0.140900 -0.859659
			0.568657 0.145083 -0.809679
			0.721812 0.013902 -0.691950
			0.430461 0.089308 -0.898180
			-0.421191 -0.863851 -0.276331
			-0.614899 -0.752533 0.235783
			-0.750471 -0.378397 -0.541856
			-0.694481 -0.317189 -0.645823
			-0.629532 0.011986 -0.776882
			-0.590337 0.353957 -0.725408
			-0.404020 0.510429 -0.759098
			-0.302117 0.462834 -0.833372
			-0.332268 0.545948 -0.769116
			-0.335385 0.309484 -0.889796
			-0.392286 0.215456 0.894254
			-0.401335 0.151050 0.903390
			-0.263057 0.425276 0.865992
			-0.376237 0.245525 0.893400
			-0.106453 0.323625 0.940178
			-0.544662 -0.090138 0.833797
			-0.516684 0.337352 0.786913
			-0.697776 -0.384098 0.604630
			-0.812530 0.227603 0.536648
			-0.442626 0.868482 0.223204
			-0.159251 0.981326 0.107883
			-0.248085 0.968297 -0.029232
			0.526883 0.751197 -0.397615
			-0.313705 0.007096 -0.949494
			-0.185534 0.370971 -0.909922
			0.226029 0.943315 -0.243037
			0.103060 0.934243 -0.341422
			0.736270 0.617979 -0.275697
			0.048687 0.793755 -0.606285
			0.997676 0.042509 0.053257
			0.680481 -0.156501 0.715859
			0.691996 -0.091543 0.716074
			0.704567 -0.116557 0.700000
			0.620789 -0.026418 0.783532
			0.666274 0.185761 0.722199
			0.736546 -0.110047 0.667375
			0.605244 -0.251754 0.755182
			0.334392 0.142487 0.931601
			0.485030 0.284457 0.826940
			0.394473 0.041174 0.917985
			0.343680 -0.477099 0.808864
			0.127995 0.107343 0.985949
			0.556344 0.181946 0.810788
			0.725697 0.038857 0.686916
			0.335021 0.016869 0.942060
			-0.016543 -0.704857 0.709157
			0.013391 0.041318 0.999056
			-0.437853 -0.864615 0.246426
			-0.639012 -0.724531 -0.258300
			0.760050 0.155182 0.631065
			0.035353 0.377567 0.925307
			0.504179 0.399735 -0.765516
			0.046634 0.983856 -0.172779
			-0.663126 -0.474472 0.578913
			-0.642816 -0.355542 -0.678511
			-0.665754 -0.497925 0.555737
			-0.655795 -0.441545 -0.612349
			-0.678078 -0.480827 -0.555891
			-0.655712 -0.496101 0.569144
			-0.673243 -0.479151 -0.563168
			0.600615 -0.104739 -0.792648
			0.624336 -0.143531 -0.767856
			0.424738 -0.369749 -0.826368
			0.128231 -0.639810 -0.757760
			-0.110740 -0.793615 -0.598257
			-0.360220 -0.881412 -0.305542
			0.744298 0.338852 -0.575499
			0.457984 0.419506 -0.783751
			0.769777 -0.104465 -0.629707
			0.319538 0.296624 -0.899950
			0.464756 0.087938 -0.881061
			0.724836 0.181258 -0.664649
			0.583432 -0.289998 -0.758623
			0.699140 0.501495 -0.509614
			0.105366 0.400909 -0.910038
			0.900843 -0.056795 -0.430414
			0.880993 0.422412 -0.213118
			0.444114 -0.005592 -0.895953
			0.322509 0.069494 -0.944012
			-0.581737 -0.789311 0.196392
			-0.632046 -0.458920 0.624428
			-0.563201 0.074962 -0.822913
			-0.414835 0.260530 -0.871800
			-0.418612 0.172993 -0.891536
			-0.324669 0.296594 -0.898121
			-0.254073 0.454255 -0.853873
			-0.134950 0.371150 -0.918714
			-0.378881 0.271983 -0.884576
			-0.701196 0.206292 -0.682472
			-0.291938 0.203183 0.934606
			-0.421078 -0.037440 0.906251
			-0.461486 0.241948 0.853517
			-0.277234 0.322860 0.904932
			-0.569834 -0.300047 0.765024
			-0.255958 0.142946 0.956061
			-0.413658 0.226256 0.881870
			-0.193738 -0.052083 0.979670
			-0.689026 0.315557 0.652432
			-0.207550 0.866625 0.453744
			-0.442995 0.871473 -0.210452
			-0.169897 0.985389 0.011982
			-0.255592 0.959579 0.117820
			0.547013 0.722618 0.422611
			0.714748 -0.102631 0.691811
			0.606696 -0.091892 0.789605
			0.477254 -0.299093 0.826300
			0.518058 0.367285 0.772474
			0.634512 0.313703 0.706389
			0.463797 0.108349 0.879291
			0.330910 0.255201 0.908500
			0.707042 0.286034 0.646743
			0.688543 -0.084221 0.720289
			0.728334 -0.207518 0.653044
			0.196743 -0.574253 0.794686
			-0.005882 0.191937 0.981390
			0.677040 0.332765 0.656418
			-0.076765 -0.767371 0.636592
			0.476073 0.446684 0.757515
			0.908184 -0.037584 0.416880
			0.826078 0.280282 0.488914
			0.455647 0.029203 0.889682
			0.018118 0.123185 0.992218
			-0.397356 -0.883661 0.247491
			-0.632338 -0.730806 -0.257044
			-0.667468 -0.462061 -0.583940
			0.032932 0.921073 0.387995
			0.309059 0.875121 0.372352
			0.393382 0.773058 0.497627
			0.330266 0.847630 0.415268
			0.218905 0.808161 0.546768
			-0.613547 -0.405610 0.677525
			-0.614833 -0.058249 -0.786503
			-0.629031 -0.388055 0.673598
			-0.630174 -0.274803 -0.726199
			-0.642258 -0.389763 -0.659992
			-0.709435 -0.274049 0.649306
			-0.702521 -0.315465 -0.637924
			0.541778 -0.214720 -0.812633
			0.340280 -0.418438 -0.842092
			0.131700 -0.587310 -0.798575
			-0.050915 -0.709992 -0.702367
			-0.332015 -0.875167 -0.351922
			-0.584819 -0.785058 0.204133
			0.653054 0.493109 -0.574773
			0.496091 0.657500 -0.567087
			0.614046 0.111794 -0.781313
			0.592036 0.152775 -0.791298
			0.355886 0.464778 -0.810756
			0.349898 0.607019 -0.713512
			0.562994 -0.161328 -0.810562
			0.276029 0.052268 -0.959727
			0.500533 -0.018949 -0.865510
			0.179510 0.180066 -0.967136
			0.914173 -0.010957 -0.405177
			0.420822 -0.348999 -0.837322
			0.815168 0.128362 -0.564822
			0.912664 -0.053242 -0.405228
			0.806201 0.544377 -0.231719
			0.311544 0.713228 -0.627890
			-0.023376 0.970410 0.240330
			0.305429 0.802469 -0.512598
			0.279815 0.947150 -0.156878
			-0.611419 -0.390745 0.688103
			-0.723859 -0.267499 0.635981
			-0.447481 0.171030 -0.877787
			-0.402364 0.100037 -0.909998
			-0.342249 0.295992 -0.891770
			-0.495545 0.262223 -0.828054
			-0.493759 0.320222 -0.808492
			-0.174513 -0.019420 -0.984463
			-0.255958 0.142946 -0.956061
			-0.233408 0.176959 -0.956141
			-0.107926 0.908506 -0.403695
			-0.292654 0.267037 0.918175
			-0.510171 -0.142625 0.848165
			-0.157645 0.283157 0.946029
			-0.301063 0.292153 0.907749
			-0.366452 0.257753 0.894022
			-0.216790 0.089400 0.972116
			0.012362 0.119156 0.992799
			-0.338743 0.230114 0.912305
			-0.709962 0.427135 0.559919
			-0.312438 0.393598 0.864559
			0.635857 -0.096816 0.765711
			0.394995 -0.295362 0.869908
			0.141873 -0.550445 0.822729
			0.494864 0.608781 0.620076
			0.635304 0.444555 0.631475
			0.320339 0.450773 0.833179
			0.333939 0.568280 0.752026
			0.625801 0.200293 0.753828
			0.587759 0.043242 0.807880
			0.917004 0.100333 0.386052
			0.449842 0.060039 0.891088
			0.230781 0.025799 0.972664
			0.109108 0.104885 0.988481
			0.590154 -0.176758 0.787702
			0.564296 -0.175482 0.806707
			-0.089721 -0.741322 0.665125
			0.243129 -0.036842 0.969294
			0.880780 -0.160045 0.445658
			0.639675 0.496436 0.586828
			-0.363264 -0.878474 0.310360
			0.463304 0.804242 -0.372217
			0.420541 0.904265 0.073826
			0.252068 0.534802 0.806504
			-0.058582 0.997245 -0.045498
			0.008024 0.657533 0.753383
			-0.015691 0.868849 0.494829
			-0.633282 -0.739717 -0.227534
			-0.652381 -0.397225 -0.645454
			-0.705894 -0.261563 -0.658254
			0.329031 0.899758 -0.286661
			0.209435 0.868147 -0.449952
			-0.033694 0.962298 0.269903
			-0.149075 0.794396 0.588822
			-0.510409 -0.147426 0.847200
			-0.515921 0.011708 -0.856556
			-0.608423 -0.075263 0.790036
			-0.514483 -0.149592 -0.844351
			-0.571536 -0.077548 -0.816905
			-0.642341 -0.130465 0.755233
			-0.591857 -0.071552 -0.802861
			0.242675 -0.413960 -0.877352
			0.198074 -0.370609 -0.907422
			0.038879 -0.581978 -0.812274
			-0.329216 -0.879026 -0.344862
			-0.606943 -0.755103 0.247871
			-0.623607 -0.356049 0.695948
			0.705994 0.528744 -0.471170
			0.619189 0.756332 -0.211108
			0.543004 0.178832 -0.820467
			0.500440 0.799010 -0.333381
			0.464292 0.653405 -0.597909
			0.310738 0.685170 -0.658775
			0.432024 -0.045910 -0.900693
			0.331790 0.010249 -0.943298
			0.032232 0.312694 -0.949307
			-0.062511 0.441443 -0.895109
			0.296528 -0.203249 -0.933146
			0.263736 -0.032735 -0.964039
			0.441352 0.001949 -0.897332
			0.077692 0.068547 -0.994618
			-0.285845 0.218767 -0.932970
			0.227184 -0.289428 -0.929849
			0.439385 0.638575 -0.631793
			0.080223 0.992444 0.092840
			0.178963 0.981923 0.061647
			-0.371600 0.901360 0.222404
			-0.214531 0.949505 0.228948
			0.017379 0.998636 -0.049230
			-0.607961 -0.324171 0.724773
			-0.550293 -0.152848 0.820863
			-0.381011 0.214623 -0.899315
			-0.397789 0.221804 -0.890262
			-0.260738 0.126298 -0.957113
			-0.217547 -0.010809 -0.975990
			-0.209999 0.217534 -0.953194
			-0.095808 0.277766 -0.955859
			-0.589727 0.380356 -0.712427
			-0.346492 0.215829 -0.912886
			0.012362 0.119156 -0.992799
			-0.179756 0.258853 0.949043
			-0.184780 0.329341 0.925954
			-0.406993 0.098075 0.908151
			-0.464453 0.148788 0.873010
			-0.044288 -0.011238 0.998956
			-0.307521 0.137293 0.941585
			-0.517307 0.821141 0.241082
			0.166057 0.784965 0.596871
			0.286183 0.874852 -0.390810
			0.305180 -0.278582 0.910636
			0.133780 -0.415423 0.899737
			-0.041570 -0.659140 0.750871
			0.620619 0.720724 0.308852
			0.679180 0.463767 0.568889
			0.456250 0.666597 0.589478
			0.481552 0.683188 0.548964
			0.306280 0.686040 0.659956
			0.587952 0.222194 0.777780
			-0.019054 0.229839 0.973042
			-0.062511 0.441443 0.895109
			0.452248 -0.026672 0.891494
			0.367342 0.031892 0.929539
			0.493153 0.051771 0.868401
			0.310995 0.033202 0.949832
			0.072120 0.067907 0.995082
			-0.291480 0.177167 0.940027
			0.295292 -0.178501 0.938584
			0.199956 -0.293342 0.934863
			-0.330739 -0.879477 0.342245
			0.499301 0.748925 0.435672
			0.156878 0.987472 0.016997
			0.194434 0.968004 -0.158631
			-0.621863 -0.742918 -0.247709
			0.011451 0.977631 -0.210016
			-0.332428 0.941517 -0.055116
			-0.159422 0.976897 -0.142324
			0.026770 0.986587 0.161024
			-0.626452 -0.321293 -0.710161
			-0.628170 -0.347344 -0.696244
			-0.568782 -0.182065 -0.802085
			-0.137169 0.797581 -0.587410
			-0.254745 0.187756 0.948606
			-0.173965 0.265254 -0.948355
			-0.296179 0.096462 0.950249
			-0.158989 0.165064 -0.973384
			-0.233446 0.079120 -0.969146
			-0.390187 0.077072 0.917504
			-0.372756 0.096580 -0.922890
			0.248320 -0.289049 -0.924547
			0.103204 -0.601348 -0.792293
			-0.291532 -0.919631 -0.263227
			-0.573135 -0.740336 0.351311
			-0.622382 -0.348973 0.700613
			-0.619834 -0.284567 0.731319
			0.761542 0.564582 -0.318277
			0.602345 0.776053 0.186875
			0.549293 0.222759 -0.805392
			0.568360 0.815601 0.108457
			0.584157 0.807725 0.079631
			0.361038 0.927543 -0.096520
			0.317275 0.052883 -0.946858
			0.408195 0.512058 -0.755760
			0.724922 0.247273 -0.642918
			0.058154 0.809187 -0.584666
			0.458913 0.485072 -0.744382
			0.275874 -0.065774 -0.958941
			0.295803 -0.051025 -0.953885
			-0.474663 0.269463 -0.837905
			0.270605 0.238619 -0.932649
			0.267524 -0.225822 -0.936715
			0.372378 0.462896 -0.804402
			0.180052 0.479973 -0.858607
			-0.073298 0.432072 -0.898856
			0.246287 -0.377264 -0.892757
			0.291277 0.952108 -0.092996
			0.164654 0.954582 -0.248320
			0.114535 0.989206 -0.091394
			0.180432 0.975485 0.125992
			-0.587770 -0.115047 0.800806
			-0.425559 -0.048253 0.903643
			-0.151461 0.406878 -0.900838
			-0.357492 0.205000 -0.911139
			-0.406954 0.060826 -0.911421
			-0.275896 0.100184 -0.955952
			0.005702 -0.027699 -0.999600
			0.205722 0.792219 -0.574515
			0.258441 0.901169 0.347998
			-0.492077 0.849229 -0.191496
			0.075126 0.230937 0.970064
			-0.060304 0.060519 0.996344
			0.096085 -0.008215 0.995339
			-0.501435 0.081288 0.861368
			0.146355 0.645405 0.749688
			0.077985 0.963232 0.257103
			-0.259065 0.648009 0.716219
			0.171747 -0.380110 0.908856
			0.024076 -0.674017 0.738324
			-0.269745 -0.915305 0.299089
			0.644280 0.759382 -0.090789
			0.751720 0.497961 0.432379
			0.584503 0.807897 -0.075223
			0.611183 0.781625 -0.124566
			0.376235 0.854258 0.358733
			0.563309 0.236016 0.791821
			0.403288 0.493664 0.770490
			0.672026 0.286428 0.682890
			0.336455 0.316568 0.886895
			0.044877 0.559934 0.827321
			0.322259 0.035561 0.945983
			-0.487459 0.306286 0.817663
			0.238372 0.255596 0.936936
			0.227134 -0.116701 0.966846
			0.285127 -0.073036 0.955703
			0.356119 0.630048 0.690086
			0.149990 0.485479 0.861286
			-0.109606 0.504132 0.856643
			0.210077 -0.286678 0.934710
			0.240782 -0.382365 0.892088
			-0.568227 -0.771977 -0.284903
			0.192086 0.975776 -0.104715
			0.148922 0.971791 0.182877
			0.130049 0.983920 0.122424
			0.212761 0.972642 -0.093280
			-0.627171 -0.326700 -0.707052
			-0.624324 -0.295810 -0.722991
			-0.580028 -0.103199 -0.808033
			-0.349008 -0.035623 -0.936442
			-0.307370 -0.033128 0.951013
			-0.004811 -0.045796 -0.998939
			0.046636 0.090843 -0.994773
			-0.344317 0.044975 0.937776
			-0.165888 0.155841 0.973753
			-0.212198 0.062426 -0.975231
			-0.169224 0.155275 -0.973269
			-0.352658 0.115502 -0.928597
			0.079280 -0.628205 -0.773998
			-0.327894 -0.917794 -0.223921
			-0.546411 -0.703888 0.453847
			-0.565806 -0.345607 0.748611
			-0.656383 -0.221297 0.721241
			-0.707505 -0.141662 0.692365
			0.867447 0.475262 0.147182
			0.596018 0.593203 0.541177
			0.542934 0.219767 -0.810509
			0.673872 0.191949 -0.713479
			0.496133 0.531902 0.686245
			0.290593 0.615233 0.732833
			0.403060 0.832241 0.380681
			0.344383 0.045964 -0.937703
			0.669417 0.706557 -0.229473
			0.717279 0.651909 -0.246022
			0.260148 0.793373 -0.550348
			0.295238 -0.055898 -0.953787
			0.262455 0.289552 -0.920477
			0.822249 0.096253 -0.560929
			-0.029042 0.388859 -0.920839
			-0.168985 0.456067 -0.873755
			0.299818 -0.103801 -0.948333
			0.305751 0.000954 -0.952111
			-0.156600 0.808994 -0.566573
			0.027082 0.868656 -0.494675
			0.310460 0.784654 -0.536594
			0.640958 0.586772 -0.494845
			0.207466 -0.408178 -0.889015
			0.263939 0.957844 -0.113448
			-0.120025 -0.832575 -0.540752
			-0.037052 0.981831 -0.186106
			0.263029 0.964685 -0.014094
			-0.587880 -0.145749 0.795710
			-0.219164 -0.066435 0.973424
			-0.482356 -0.212168 0.849893
			0.137336 -0.130705 -0.981863
			0.211231 0.620811 -0.754967
			-0.437234 0.054318 -0.897706
			-0.259065 0.648009 -0.716219
			0.107639 0.956249 -0.272033
			0.016952 -0.314088 0.949242
			-0.301627 -0.363105 0.881576
			0.252093 -0.349919 0.902223
			0.300433 0.421881 0.855428
			0.284502 0.958636 -0.008688