<?xml version="1.0"?>
<VTKFile type="PolyData" version="0.1" byte_order="LittleEndian" compressor="vtkZLibDataCompressor">
	<PolyData>
		<Piece NumberOfPoints="340" NumberOfVerts="0" NumberOfLines="0" NumberOfStrips="0" NumberOfPolys="676">
		<PointData Normals="Normals">
		<DataArray type="Float32" Name="Normals" NumberOfComponents="3" format="ascii">
			 0.393521 -0.017413 -0.919151
			-0.492804  0.060883 -0.868008
			 0.763760  0.102298 -0.637343
			 0.856428  0.015168 -0.516044
			-0.741844  0.042569 -0.669220
			 0.084181 -0.010886 -0.996391
			 0.999691 -0.022851 -0.009802
			 0.970691 -0.062403 -0.232090
			-0.906323 -0.055135  0.418974
			-0.994166 -0.044042 -0.098455
			 0.636986  0.341326 -0.691192
			-0.527607  0.277461 -0.802899
			-0.992791 -0.089907  0.079267
			 0.858990  0.196540 -0.472766
			 0.966694  0.160405  0.199432
			 0.929239  0.010101  0.369341
			-0.945120  0.002627  0.326714
			-0.649411  0.046848 -0.758993
			-0.998475  0.054435 -0.009171
			-0.244021 -0.010303 -0.969715
			-0.037580  0.031989  0.998781
			 0.350095 -0.050180  0.935369
			 0.997755 -0.065194  0.015298
			-0.730232  0.030435  0.682521
			-0.061807  0.090148  0.994009
			 0.738018  0.514353 -0.436772
			 0.941818  0.183423 -0.281666
			 0.102296  0.445215 -0.889561
			-0.908235 -0.017242 -0.418105
			-0.994535 -0.104149  0.007272
			-0.832360  0.164356  0.529306
			-0.936120 -0.259881  0.236942
			-0.892161 -0.436627  0.115788
			-0.707263  0.144737  0.691976
			 0.976036  0.112088  0.186519
			 0.965411  0.008271  0.260601
			-0.014666  0.232034  0.972597
			 0.214321  0.471014  0.855694
			 0.890634  0.209249  0.403715
			 0.935340  0.019637 -0.353205
			 0.921977  0.207636 -0.326872
			-0.814092  0.043171  0.579129
			-0.985586  0.046807  0.162573
			-0.690053  0.056840  0.721523
			 0.098489 -0.168483 -0.980772
			 0.895074 -0.183522 -0.406402
			-0.611553 -0.084358 -0.786693
			-0.931678  0.001101 -0.363285
			 0.760374 -0.050121  0.647549
			-0.309112 -0.010089  0.950972
			 0.507278  0.447476 -0.736501
			 0.795564  0.500926 -0.340809
			 0.939822  0.339575 -0.037731
			 0.950436  0.231441 -0.207622
			 0.992590  0.121324  0.006703
			-0.167950  0.102759 -0.980425
			-0.905910 -0.324565 -0.272002
			-0.625204 -0.357649 -0.693691
			-0.876522 -0.270579  0.398116
			-0.840841 -0.265558  0.471662
			-0.991343 -0.038338 -0.125573
			-0.833998 -0.463170 -0.299866
			-0.769029  0.367181  0.523234
			-0.617256 -0.660018  0.428219
			-0.674434 -0.737716 -0.030236
			 0.907357  0.387352  0.163284
			 0.833618  0.147343  0.532326
			 0.915323 -0.169307  0.365403
			 0.973956 -0.199791  0.107208
			 0.988115  0.090842  0.124000
			 0.729372  0.518148  0.446697
			 0.141901  0.744955  0.651848
			 0.821691  0.292053 -0.489416
			 0.813006  0.489387 -0.315472
			-0.943062  0.019302  0.332057
			 0.149157 -0.201535 -0.968058
			-0.270499 -0.254225 -0.928547
			 0.606487 -0.018335 -0.794882
			 0.757767 -0.110638  0.643077
			 0.934073 -0.352953 -0.054140
			 0.876034 -0.207066 -0.435531
			 0.966530 -0.038940 -0.253581
			-0.636069 -0.270234 -0.722765
			-0.849378 -0.118465 -0.514318
			-0.940249 -0.046337 -0.337321
			-0.984127 -0.021878 -0.176112
			-0.163170 -0.062518  0.984615
			-0.835098 -0.047694  0.548030
			 0.570697  0.257909 -0.779608
			 0.420964  0.140388 -0.896148
			 0.769551  0.611159 -0.185138
			 0.619838  0.775687  0.118790
			 0.616984  0.784373 -0.063951
			-0.076402 -0.230706 -0.970019
			-0.850424 -0.521219 -0.071481
			-0.900167 -0.280277  0.333382
			-0.692841 -0.687068 -0.218881
			-0.297985 -0.699741 -0.649282
			-0.457676 -0.596866  0.659001
			-0.632497 -0.222138  0.742026
			-0.733788  0.116525  0.669311
			-0.852165  0.057197 -0.520138
			-0.842421 -0.284434 -0.457629
			-0.814583  0.383790  0.434925
			-0.994186 -0.019027 -0.105985
			-0.998815  0.048579 -0.002940
			-0.824252 -0.096328 -0.557970
			-0.703775 -0.308107 -0.640133
			-0.498440 -0.823908  0.269691
			-0.917434 -0.304197  0.256473
			-0.976436 -0.202544  0.074485
			 0.624896  0.641228  0.445345
			 0.745417  0.661487  0.082392
			 0.736925  0.181315  0.651204
			 0.899443  0.361361  0.245805
			 0.979741 -0.104493 -0.170850
			 0.942289  0.322346 -0.090465
			 0.872285  0.158509 -0.462594
			 0.747550  0.587698  0.309484
			 0.380509  0.513498  0.769112
			 0.912098  0.014682  0.409710
			 0.715557  0.331353  0.614966
			 0.787342  0.181625  0.589157
			-0.203175  0.564110  0.800312
			 0.297351  0.346616 -0.889629
			-0.421768 -0.101468 -0.901008
			-0.009575  0.166114 -0.986060
			-0.477799 -0.340085 -0.809970
			 0.582719  0.477962 -0.657260
			 0.929946  0.181427 -0.319819
			 0.748493  0.283293 -0.599586
			 0.624816 -0.253423  0.738499
			 0.788038 -0.377877  0.486009
			 0.860428 -0.509313  0.016262
			 0.761309 -0.505174 -0.406458
			 0.775475  0.159264 -0.610960
			 0.805926 -0.034153 -0.591030
			 0.850169 -0.450557 -0.272417
			 0.978251  0.206859  0.015325
			-0.882814 -0.302019 -0.359757
			-0.978124 -0.181438  0.101756
			-0.941654 -0.111519  0.317570
			-0.635280 -0.157627  0.756024
			-0.080006 -0.244772  0.966274
			 0.426803  0.417247 -0.802337
			 0.515617 -0.305738 -0.800414
			 0.580235 -0.106681 -0.807432
			 0.530889 -0.167462 -0.830730
			 0.509624  0.703244 -0.495713
			 0.514865  0.855117 -0.060727
			 0.477860  0.878192 -0.020698
			 0.325890  0.888093  0.324170
			 0.413221  0.832933 -0.368064
			 0.395674  0.889423 -0.228841
			 0.512362  0.817902  0.261766
			-0.009227 -0.541372 -0.840732
			-0.919446 -0.269433  0.286400
			-0.762102 -0.625926  0.165581
			-0.506440 -0.843539 -0.178773
			 0.256474 -0.512964 -0.819200
			 0.107751 -0.882316 -0.458157
			 0.105556 -0.707840 -0.698442
			-0.214566 -0.926660 -0.308645
			-0.539103 -0.689497  0.483695
			-0.760379  0.260456  0.594968
			-0.839490  0.406102  0.361023
			-0.924188  0.192095  0.330114
			-0.676948  0.297177 -0.673370
			-0.868444  0.334188 -0.366227
			-0.690054  0.133688  0.711304
			-0.942600 -0.175708  0.283956
			-0.909299 -0.415766 -0.017704
			-0.978204 -0.171252 -0.117427
			-0.928225  0.370080  0.037929
			-0.733317  0.660291 -0.162058
			-0.738943  0.513434 -0.436289
			-0.626497  0.338267 -0.702195
			 0.585611  0.611046  0.532619
			 0.742863  0.647178  0.171217
			 0.551959  0.833871  0.001029
			 0.833675  0.447823  0.323172
			 0.962825  0.183741  0.198008
			 0.762955  0.582688 -0.279954
			 0.692454  0.635600 -0.341351
			 0.720074  0.690586 -0.067711
			 0.938452  0.341067  0.054603
			 0.818276  0.386568  0.425428
			 0.559573  0.296248  0.774026
			 0.386730  0.288309  0.875967
			-0.213597  0.137175  0.967243
			 0.348177 -0.112541  0.930649
			 0.824446 -0.298839  0.480609
			 0.714045 -0.016688  0.699901
			 0.885568 -0.220469  0.408856
			-0.238585  0.605146 -0.759523
			-0.016320  0.683586 -0.729687
			-0.318097  0.285968 -0.903901
			-0.591862  0.436072 -0.677894
			-0.823883  0.116731 -0.554608
			-0.829288 -0.292987 -0.475857
			 0.090222  0.780297 -0.618867
			 0.638318  0.681033 -0.358809
			 0.232008  0.908872 -0.346590
			 0.853523  0.499850 -0.147133
			 0.368502 -0.451706  0.812507
			 0.554825 -0.677170  0.483331
			 0.712853 -0.394003  0.580175
			 0.739694  0.089271  0.666996
			 0.985585 -0.100208  0.136312
			 0.869248  0.235484  0.434690
			 0.865652  0.454168 -0.210663
			 0.765035  0.464042 -0.446527
			 0.738393  0.291989 -0.607881
			 0.959768  0.278973 -0.031948
			-0.863610 -0.481605 -0.149108
			-0.971446 -0.216365 -0.097359
			-0.841056 -0.524672  0.131695
			-0.667315 -0.472108  0.576025
			-0.672567 -0.289325  0.681135
			 0.078331 -0.434147  0.897430
			-0.276296 -0.527483  0.803382
			 0.491499  0.820850 -0.290919
			 0.713752  0.467261 -0.521752
			 0.813232 -0.060163 -0.578821
			 0.889397 -0.406079 -0.209936
			 0.678262 -0.688990 -0.255446
			 0.399924 -0.597765 -0.694793
			 0.791664  0.610870  0.010279
			 0.619373  0.705808  0.343820
			-0.991846 -0.127446 -0.000187
			-0.706359 -0.695054 -0.134008
			-0.792017 -0.592728  0.146228
			-0.331477 -0.942696 -0.038037
			 0.387388 -0.811974 -0.436611
			 0.504188 -0.863139 -0.028022
			 0.143319 -0.988827 -0.040998
			-0.557316  0.623067 -0.548804
			-0.924516 -0.224734 -0.307840
			-0.457655 -0.190034  0.868584
			-0.663514 -0.655868  0.359981
			-0.627861 -0.778276 -0.008807
			-0.837372 -0.516776  0.178189
			-0.973035 -0.227590  0.037506
			 0.951538  0.296369  0.082108
			 0.896311 -0.262592  0.357312
			 0.873019  0.308832  0.377440
			 0.887751 -0.457422 -0.051617
			 0.996213 -0.043886  0.075064
			 0.977421 -0.204768  0.052135
			 0.862114  0.029872  0.505833
			 0.334030 -0.013071  0.942472
			 0.540032 -0.176306  0.822972
			-0.024118 -0.169505  0.985234
			 0.343192 -0.610983  0.713386
			-0.058896 -0.370708  0.926880
			 0.608543 -0.706457  0.361377
			 0.695340 -0.659832  0.284823
			-0.432951  0.605438 -0.667830
			-0.391592  0.759305 -0.519723
			-0.751302  0.558242 -0.352011
			-0.508999  0.801155 -0.314756
			-0.889141  0.360590 -0.281787
			-0.933155 -0.044135 -0.356754
			-0.878692 -0.306635 -0.365890
			 0.610431  0.787750 -0.082607
			 0.240202  0.923122 -0.300249
			-0.175926  0.828035 -0.532361
			 0.399017  0.911572 -0.099105
			 0.138142 -0.752950  0.643415
			 0.382184 -0.816412  0.432905
			 0.612332 -0.621995  0.488029
			 0.610271 -0.194073  0.768052
			 0.720105  0.487785  0.493472
			 0.397909  0.090720  0.912929
			 0.407932  0.426371  0.807341
			 0.720912  0.683123  0.116736
			 0.596700  0.760719 -0.255452
			 0.686350  0.694008 -0.217433
			 0.809612  0.481023 -0.336371
			-0.911227 -0.394757 -0.117607
			-0.616762 -0.563042  0.550081
			-0.541571 -0.670179  0.507505
			-0.836600 -0.449595  0.312994
			-0.151016 -0.761689  0.630099
			 0.968395  0.228224 -0.100622
			 0.982011 -0.151264 -0.113024
			 0.825338 -0.539061  0.168019
			-0.412329 -0.784042 -0.463965
			-0.039581 -0.977447 -0.207438
			 0.409587 -0.907196  0.096100
			-0.807381 -0.464309 -0.364077
			-0.285496 -0.958373  0.003533
			-0.138837 -0.862754  0.486189
			-0.260124 -0.965158 -0.028386
			-0.567734 -0.774766  0.278236
			-0.644239 -0.469171  0.604016
			-0.885296 -0.363170  0.290445
			 0.962300 -0.035510  0.269663
			 0.441259 -0.849656 -0.288749
			 0.767595 -0.640291 -0.028729
			 0.659047 -0.253617  0.708051
			 0.608685 -0.540788  0.580561
			 0.085275 -0.312741  0.946003
			 0.027250 -0.322582  0.946149
			 0.126122 -0.848225  0.514401
			 0.134177 -0.980931  0.140608
			 0.103085 -0.993898  0.039242
			-0.794321  0.569604  0.211200
			-0.186983  0.877502 -0.441620
			-0.208074  0.975979 -0.064582
			-0.377869  0.828126  0.414031
			-0.963839  0.254274 -0.079743
			-0.999763 -0.020297  0.007906
			 0.192454  0.916243 -0.351368
			-0.171520 -0.761657  0.624867
			 0.025259 -0.779731  0.625605
			 0.311080 -0.651280  0.692145
			 0.268011 -0.246167  0.931435
			 0.221912  0.775914  0.590519
			-0.121587  0.184917  0.975204
			 0.095644  0.519421  0.849149
			 0.170348  0.978144  0.119228
			-0.912940  0.076490  0.400861
			-0.385766 -0.410230  0.826375
			-0.701543  0.013707  0.712496
			-0.484641 -0.106466  0.868210
			-0.342033 -0.860216 -0.378208
			 0.000432 -0.908890 -0.417037
			-0.725378 -0.685023 -0.067607
			-0.431309 -0.759990  0.486197
			-0.524247 -0.776380  0.349856
			-0.226566 -0.643495  0.731151
			-0.328614 -0.521045  0.787734
			 0.453934 -0.884996 -0.103568
			 0.038397 -0.988323 -0.147457
			 0.294671 -0.828001  0.477056
			-0.939102  0.264027  0.219949
			-0.612022  0.396457  0.684289
			-0.203521  0.572942  0.793925
			-0.087271 -0.289583  0.953166
		</DataArray>
	</PointData>
	<Points>
		<DataArray type="Float32" NumberOfComponents="3" format="ascii">
			 0.001799 -0.185090 -0.007099
			-0.003350 -0.228611 -0.009503
			 0.010028 -0.237411 -0.002364
			 0.009249 -0.215348 -0.002383
			-0.005689 -0.179592 -0.005820
			 0.006976 -0.147072 -0.007765
			 0.011714 -0.176977  0.000578
			 0.013846 -0.143630 -0.003778
			-0.003812 -0.227873  0.007492
			-0.006928 -0.205987 -0.004341
			 0.006233 -0.248931 -0.010033
			-0.000816 -0.249482 -0.014296
			-0.002494 -0.245152  0.003752
			 0.009732 -0.247093 -0.005444
			 0.011497 -0.245066  0.001727
			 0.010275 -0.215904  0.001104
			-0.005907 -0.204749  0.004532
			-0.003849 -0.155862 -0.005201
			-0.006372 -0.156088  0.000846
			 0.002982 -0.087285 -0.008853
			-0.002588 -0.174956  0.007706
			 0.004617 -0.123935  0.007459
			 0.015871 -0.099007 -0.001285
			-0.002402 -0.236576  0.008759
			 0.000199 -0.236809  0.010268
			 0.009725 -0.265930 -0.017822
			 0.011550 -0.266077 -0.013021
			 0.002385 -0.262519 -0.020880
			-0.000267 -0.263326 -0.019133
			 0.000137 -0.261728  0.013963
			 0.000289 -0.260952  0.015839
			-0.001001 -0.266234 -0.005904
			 0.001356 -0.265136  0.001824
			-0.000292 -0.253102  0.012872
			 0.015402 -0.272523 -0.000523
			 0.013720 -0.266941  0.004432
			 0.000593 -0.245043  0.011534
			 0.003114 -0.262391  0.017335
			 0.011831 -0.260812  0.008921
			 0.014079 -0.269495 -0.004237
			 0.014982 -0.272819 -0.002815
			-0.004666 -0.155934  0.004892
			-0.002471 -0.098081  0.000433
			-0.002714 -0.127486  0.004166
			 0.009014 -0.036122 -0.010724
			 0.017710 -0.031927 -0.006055
			 0.003805 -0.036349 -0.009732
			-0.001420 -0.072846 -0.003001
			 0.013355 -0.082491  0.003956
			 0.004768 -0.097472  0.008318
			 0.010664 -0.271060 -0.023071
			 0.012476 -0.271822 -0.021645
			 0.011836 -0.269512 -0.017285
			 0.012171 -0.273522 -0.008143
			 0.011816 -0.272219 -0.011956
			 0.006713 -0.271150 -0.023984
			 0.001164 -0.280161 -0.015096
			 0.005133 -0.278292 -0.022504
			-0.000959 -0.271316 -0.008967
			-0.000785 -0.276024 -0.010468
			 0.000851 -0.274071  0.019295
			 0.001634 -0.269096  0.011018
			 0.000669 -0.265934  0.018600
			 0.003122 -0.269665 -0.003084
			 0.006403 -0.270861  0.000663
			 0.016005 -0.275375 -0.000722
			 0.014606 -0.273710  0.001640
			 0.013070 -0.271345  0.004357
			 0.012746 -0.270513  0.008464
			 0.012976 -0.270311  0.012485
			 0.011946 -0.273745  0.018102
			 0.003102 -0.270632  0.023726
			 0.013531 -0.273940 -0.004835
			 0.016200 -0.275906 -0.003073
			-0.001405 -0.076583  0.000925
			 0.011978 -0.007401 -0.018061
			 0.004079 -0.020977 -0.012957
			 0.016363 -0.002449 -0.017091
			 0.011787 -0.059391  0.008311
			 0.020077 -0.022983  0.003336
			 0.022245 -0.008154 -0.002855
			 0.023146 -0.002912 -0.010358
			 0.000630 -0.021321 -0.011259
			-0.001515 -0.036095 -0.003277
			-0.001672 -0.044119 -0.003079
			-0.001482 -0.050067 -0.003089
			 0.008024 -0.045182  0.009394
			-0.000373 -0.054318  0.002387
			 0.015305 -0.277008 -0.021597
			 0.012952 -0.276350 -0.023532
			 0.014032 -0.273977 -0.020262
			 0.012389 -0.274735 -0.013168
			 0.016908 -0.278428 -0.005072
			 0.010552 -0.279974 -0.024284
			 0.003837 -0.287711 -0.011597
			 0.001474 -0.281148 -0.010626
			 0.005304 -0.289341 -0.011677
			 0.010664 -0.286939 -0.020266
			 0.002202 -0.272124 -0.006592
			 0.006933 -0.274058 -0.005641
			 0.003467 -0.276978 -0.007734
			 0.001923 -0.277357  0.014587
			 0.002585 -0.272101  0.012735
			 0.001000 -0.276109  0.030265
			 0.000155 -0.276906  0.021411
			 0.010375 -0.275063  0.002217
			 0.009034 -0.276796  0.007788
			 0.004868 -0.274847  0.011474
			 0.006124 -0.270861 -0.001862
			 0.009920 -0.273976 -0.000839
			 0.009804 -0.274572  0.000659
			 0.015467 -0.277686  0.002781
			 0.018969 -0.279086 -0.000821
			 0.011959 -0.275699  0.004260
			 0.010374 -0.276636  0.007207
			 0.010435 -0.275613  0.009300
			 0.013254 -0.273820  0.015273
			 0.011898 -0.275694  0.012847
			 0.014688 -0.276858  0.016643
			 0.006945 -0.277934  0.031958
			 0.012259 -0.279221  0.023197
			 0.015260 -0.279508  0.018105
			 0.009334 -0.279531  0.030693
			 0.003215 -0.276497  0.031543
			 0.012191  0.008936 -0.018523
			 0.000109 -0.001284 -0.018412
			 0.008603  0.007031 -0.019841
			-0.000426 -0.011691 -0.015116
			 0.013858  0.010270 -0.016186
			 0.022406  0.001727 -0.011331
			 0.021214  0.004869 -0.011972
			 0.019328 -0.023318  0.006454
			 0.027532 -0.007962  0.008967
			 0.024582 -0.014349  0.005025
			 0.024244 -0.014498  0.003106
			 0.022760  0.002184 -0.003150
			 0.028434 -0.001803  0.000333
			 0.027525 -0.010095  0.002284
			 0.021860  0.001951 -0.006337
			-0.003112 -0.015706 -0.008883
			-0.003690 -0.027284  0.001426
			-0.002195 -0.035753  0.001523
			 0.001496 -0.036511  0.007199
			 0.006746 -0.034938  0.010174
			 0.017910 -0.277270 -0.020902
			 0.025639 -0.287137 -0.017391
			 0.017043 -0.283602 -0.020619
			 0.015847 -0.284750 -0.022096
			 0.015076 -0.275000 -0.020430
			 0.015838 -0.275322 -0.019479
			 0.022859 -0.277335 -0.016112
			 0.019413 -0.277467 -0.008330
			 0.020431 -0.276966 -0.019083
			 0.016871 -0.275777 -0.019625
			 0.019529 -0.279709 -0.004248
			 0.013602 -0.285745 -0.022097
			 0.004667 -0.283688 -0.004539
			 0.005983 -0.290414 -0.008811
			 0.009291 -0.292475 -0.008392
			 0.016134 -0.287735 -0.020041
			 0.019098 -0.293466 -0.014567
			 0.019651 -0.292094 -0.016268
			 0.016166 -0.293980 -0.013138
			 0.006889 -0.272107 -0.004133
			 0.007296 -0.275289 -0.005035
			 0.007728 -0.278143 -0.002142
			 0.004840 -0.281965 -0.004207
			 0.005385 -0.277322  0.011709
			 0.004146 -0.283395  0.006313
			 0.001143 -0.279706  0.031622
			 0.001033 -0.283655  0.031299
			 0.002691 -0.285557  0.019793
			 0.002266 -0.284347  0.012170
			 0.005731 -0.281816 -0.000291
			 0.007449 -0.279485  0.006298
			 0.008334 -0.278226  0.008386
			 0.007653 -0.277386  0.009130
			 0.012474 -0.276739  0.004538
			 0.019231 -0.281817  0.006549
			 0.015965 -0.280106  0.009489
			 0.021597 -0.281719 -0.003736
			 0.021801 -0.285360  0.003615
			 0.010891 -0.276691  0.009802
			 0.014737 -0.277598  0.014784
			 0.019167 -0.282155  0.011340
			 0.021742 -0.285655  0.015524
			 0.021021 -0.285288  0.017958
			 0.020460 -0.285060  0.018454
			 0.018223 -0.283737  0.018828
			 0.002652 -0.279613  0.032736
			 0.006520 -0.281835  0.032712
			 0.009095 -0.286886  0.029146
			 0.013015 -0.281580  0.020652
			 0.011360 -0.284552  0.022819
			 0.006919  0.008771 -0.018468
			 0.010003  0.010901 -0.017457
			 0.003163  0.004880 -0.019233
			-0.000713  0.003938 -0.017513
			-0.004893  0.002727 -0.013054
			-0.006596 -0.008877 -0.010522
			 0.011637  0.012472 -0.016033
			 0.016766  0.011480 -0.011701
			 0.012435  0.013504 -0.013857
			 0.020629  0.007578 -0.010248
			 0.008899 -0.019277  0.013909
			 0.016399 -0.007600  0.017586
			 0.018976 -0.004730  0.018703
			 0.021506  0.002714  0.017155
			 0.029314 -0.005276  0.006149
			 0.027366 -0.002080  0.008812
			 0.019123  0.008930 -0.006955
			 0.024212  0.005065 -0.000191
			 0.027668  0.000498  0.000148
			 0.029290  0.000062  0.003121
			-0.006442 -0.013491  0.004023
			-0.004813 -0.017875  0.003850
			-0.005550 -0.015187  0.008004
			-0.000428 -0.020342  0.012446
			 0.001399 -0.028128  0.009555
			 0.005578 -0.020150  0.014406
			 0.002461 -0.020245  0.014061
			 0.015918 -0.275489 -0.020064
			 0.025039 -0.279809 -0.017812
			 0.026303 -0.284532 -0.017473
			 0.026310 -0.288247 -0.014352
			 0.024375 -0.290751 -0.014656
			 0.023799 -0.289452 -0.017053
			 0.025603 -0.279501 -0.015252
			 0.024239 -0.279817 -0.009443
			 0.005280 -0.284936 -0.001150
			 0.009197 -0.292958 -0.000045
			 0.007124 -0.290177 -0.006122
			 0.009455 -0.293011 -0.005980
			 0.021530 -0.292589 -0.014855
			 0.021646 -0.293110 -0.012258
			 0.019114 -0.294177 -0.012346
			 0.005726 -0.279305  0.009082
			 0.004405 -0.289820  0.006056
			 0.002265 -0.283901  0.032278
			 0.002878 -0.288602  0.030602
			 0.004785 -0.288445  0.018832
			 0.003485 -0.287338  0.017438
			 0.002902 -0.287411  0.011687
			 0.020476 -0.284344  0.006613
			 0.022263 -0.289657 -0.004170
			 0.026454 -0.282454 -0.010562
			 0.020222 -0.290192  0.006195
			 0.020916 -0.287303  0.006589
			 0.021710 -0.293145  0.016036
			 0.021616 -0.289040  0.018013
			 0.020452 -0.288618  0.019007
			 0.012995 -0.284320  0.020538
			 0.004339 -0.283868  0.032658
			 0.005999 -0.289318  0.030616
			 0.003815 -0.287461  0.031620
			 0.007864 -0.289154  0.028847
			 0.009457 -0.289589  0.022461
			 0.004255  0.007757 -0.018025
			 0.000509  0.011661 -0.009347
			-0.008955  0.011027 -0.000657
			-0.005172  0.014309 -0.001820
			-0.011693  0.007329  0.001000
			-0.012897  0.001291  0.000873
			-0.011109 -0.004742  0.000596
			 0.016122  0.012436 -0.009300
			 0.008909  0.015048 -0.006788
			 0.004107  0.014771 -0.007825
			 0.014797  0.012953 -0.007967
			 0.004367 -0.013783  0.019174
			 0.007792 -0.012814  0.019188
			 0.015934 -0.007349  0.020916
			 0.015211 -0.004064  0.023192
			 0.022099  0.006928  0.014494
			 0.013144 -0.000099  0.024711
			 0.014081  0.006456  0.022135
			 0.019421  0.014148  0.006817
			 0.019306  0.012915  0.000164
			 0.017944  0.011297 -0.006168
			 0.028335  0.001746  0.001910
			-0.012659 -0.005954  0.005477
			-0.004235 -0.012595  0.019625
			-0.001592 -0.017355  0.014403
			-0.010268 -0.010055  0.012257
			 0.001120 -0.015900  0.017776
			 0.026844 -0.282084 -0.014628
			 0.027065 -0.285592 -0.014752
			 0.026083 -0.288677 -0.010292
			 0.008311 -0.294727  0.006222
			 0.014581 -0.294135  0.000954
			 0.018793 -0.292994 -0.005317
			 0.004037 -0.293921  0.009293
			 0.005039 -0.289678  0.027915
			 0.004859 -0.289260  0.030719
			 0.006993 -0.289561  0.020498
			 0.004330 -0.288191  0.017506
			 0.005216 -0.290720  0.015776
			 0.004424 -0.295222  0.011857
			 0.026967 -0.285769 -0.010540
			 0.016187 -0.294650  0.004533
			 0.019961 -0.296604  0.015550
			 0.021014 -0.293088  0.018069
			 0.019276 -0.296395  0.017619
			 0.017588 -0.295010  0.018729
			 0.011778 -0.290798  0.019294
			 0.010206 -0.289953  0.020030
			 0.006764 -0.289786  0.028426
			 0.009237 -0.290014  0.020952
			-0.009856  0.010756  0.007936
			 0.003475  0.017205 -0.004241
			 0.002346  0.018272 -0.000188
			-0.002876  0.013174  0.015289
			-0.013346  0.003740  0.003451
			-0.013820  0.000323  0.005520
			 0.008347  0.017403 -0.003433
			-0.000163 -0.012817  0.022230
			 0.003912 -0.012595  0.023285
			 0.008247 -0.011289  0.023669
			 0.009227 -0.007324  0.025021
			 0.010703  0.013751  0.017166
			 0.004305  0.000591  0.025761
			 0.008804  0.008128  0.022602
			 0.010118  0.018102  0.008024
			-0.012127 -0.001545  0.013378
			-0.001179 -0.010082  0.023536
			-0.007661 -0.000633  0.019901
			-0.001926 -0.005885  0.024294
			 0.007751 -0.298026  0.011265
			 0.013707 -0.295905  0.006250
			 0.004848 -0.296140  0.011310
			 0.007930 -0.290155  0.017993
			 0.007983 -0.298239  0.013865
			 0.013712 -0.299382  0.016013
			 0.010488 -0.291548  0.018796
			 0.017115 -0.299007  0.014595
			 0.013969 -0.299620  0.013777
			 0.016792 -0.298670  0.016869
			-0.013006  0.003894  0.008103
			-0.004185  0.006219  0.020300
			 0.001831  0.008463  0.022093
			 0.002800 -0.009569  0.024919
		</DataArray>
	</Points>
			<Polys>
				<DataArray type="Int32" Name="connectivity" format="ascii">
					2 1 0 
					3 2 0 
					5 0 4 
					4 0 1 
					3 0 6 
					6 0 7 
					5 7 0 
					9 1 8 
					1 2 10 
					10 11 1 
					1 12 8 
					12 1 11 
					1 9 4 
					2 14 13 
					2 13 10 
					2 3 14 
					3 6 15 
					14 3 15 
					4 9 16 
					4 18 17 
					5 4 17 
					4 16 18 
					19 5 17 
					7 5 19 
					6 20 15 
					7 20 6 
					20 7 21 
					22 21 7 
					22 7 19 
					16 8 20 
					12 23 8 
					16 9 8 
					24 8 23 
					20 8 24 
					26 25 10 
					26 10 13 
					27 11 10 
					27 10 25 
					11 28 12 
					27 28 11 
					30 12 29 
					12 28 31 
					32 12 31 
					12 32 29 
					23 12 33 
					12 30 33 
					26 13 14 
					24 14 20 
					35 34 14 
					20 14 15 
					37 14 36 
					14 37 38 
					36 14 24 
					14 38 35 
					40 39 14 
					40 14 34 
					14 39 26 
					41 18 16 
					20 41 16 
					17 18 19 
					42 19 18 
					18 41 43 
					42 18 43 
					45 19 44 
					19 46 44 
					47 46 19 
					19 42 47 
					19 45 22 
					41 20 43 
					43 20 21 
					49 21 48 
					21 22 48 
					43 21 49 
					48 22 45 
					24 23 36 
					23 33 36 
					25 50 27 
					50 25 51 
					52 51 25 
					25 26 52 
					53 26 39 
					26 53 54 
					26 54 52 
					28 27 55 
					27 50 55 
					57 56 28 
					28 55 57 
					28 58 31 
					59 28 56 
					28 59 58 
					29 61 60 
					29 32 61 
					29 62 30 
					60 62 29 
					30 62 37 
					30 37 33 
					32 31 63 
					58 63 31 
					63 64 32 
					61 32 64 
					37 36 33 
					66 65 34 
					34 35 67 
					34 67 66 
					65 40 34 
					35 38 68 
					68 67 35 
					37 69 38 
					69 37 70 
					37 71 70 
					37 62 71 
					38 69 68 
					39 40 72 
					53 39 72 
					73 40 65 
					72 40 73 
					49 74 42 
					74 47 42 
					42 43 49 
					76 75 44 
					46 76 44 
					45 44 75 
					75 77 45 
					45 78 48 
					45 79 78 
					80 79 45 
					45 81 80 
					45 77 81 
					82 76 46 
					83 82 46 
					83 46 84 
					46 85 84 
					85 46 47 
					47 74 85 
					49 48 78 
					87 49 86 
					87 74 49 
					49 78 86 
					89 50 88 
					89 55 50 
					50 51 88 
					88 51 90 
					51 52 90 
					91 90 52 
					54 91 52 
					53 72 92 
					53 91 54 
					91 53 92 
					57 55 93 
					89 93 55 
					56 57 94 
					59 56 95 
					95 56 94 
					57 97 96 
					93 97 57 
					57 96 94 
					98 58 59 
					63 58 98 
					99 98 59 
					100 99 59 
					95 100 59 
					60 102 101 
					60 61 102 
					60 103 62 
					103 60 104 
					101 104 60 
					105 61 64 
					61 105 106 
					61 106 107 
					107 102 61 
					62 103 71 
					98 108 63 
					108 64 63 
					64 108 109 
					64 109 110 
					64 110 105 
					65 66 111 
					65 111 112 
					73 65 112 
					67 113 66 
					111 66 113 
					67 68 114 
					114 113 67 
					68 69 115 
					114 68 115 
					116 69 70 
					117 69 116 
					69 117 115 
					116 70 118 
					71 119 70 
					121 70 120 
					70 121 118 
					70 122 120 
					122 70 119 
					119 71 123 
					103 123 71 
					92 72 73 
					92 73 112 
					85 74 87 
					75 124 77 
					126 75 125 
					124 75 126 
					127 125 75 
					75 76 127 
					76 82 127 
					128 77 124 
					81 77 129 
					130 129 77 
					128 130 77 
					86 78 131 
					131 78 79 
					79 132 131 
					79 134 133 
					133 132 79 
					79 80 134 
					136 80 135 
					137 134 80 
					137 80 136 
					80 138 135 
					81 138 80 
					138 81 129 
					139 127 82 
					82 83 139 
					140 139 83 
					140 83 84 
					141 140 84 
					84 85 141 
					85 87 141 
					87 86 142 
					131 143 86 
					143 142 86 
					141 87 142 
					145 88 144 
					145 146 88 
					88 146 147 
					147 89 88 
					88 90 148 
					88 148 144 
					89 147 93 
					91 149 90 
					148 90 149 
					151 150 91 
					151 91 92 
					152 91 150 
					91 152 153 
					149 91 153 
					154 151 92 
					92 112 154 
					155 97 93 
					147 155 93 
					94 96 156 
					156 95 94 
					156 100 95 
					156 96 157 
					158 157 96 
					158 96 97 
					97 155 159 
					161 160 97 
					160 162 97 
					162 158 97 
					161 97 159 
					108 98 163 
					98 99 163 
					109 99 164 
					163 99 109 
					100 164 99 
					100 165 164 
					165 100 166 
					100 156 166 
					102 107 101 
					101 107 167 
					167 168 101 
					101 168 104 
					103 170 169 
					103 104 170 
					103 169 123 
					171 170 104 
					172 104 168 
					171 104 172 
					105 165 173 
					165 105 110 
					175 105 174 
					105 175 106 
					174 105 173 
					167 106 176 
					106 167 107 
					176 106 175 
					108 163 109 
					165 109 164 
					165 110 109 
					177 111 113 
					179 178 111 
					111 177 114 
					179 111 114 
					112 111 178 
					181 180 112 
					112 180 154 
					178 181 112 
					177 113 114 
					114 115 182 
					114 182 179 
					115 117 182 
					116 118 183 
					116 183 117 
					183 182 117 
					118 185 184 
					118 186 185 
					186 118 187 
					188 118 121 
					118 188 187 
					184 183 118 
					189 119 123 
					122 119 190 
					119 189 190 
					191 120 122 
					193 192 120 
					120 191 193 
					121 120 192 
					121 192 188 
					122 190 191 
					123 169 189 
					194 124 126 
					195 128 124 
					124 194 195 
					196 126 125 
					196 125 197 
					198 197 125 
					125 199 198 
					127 199 125 
					196 194 126 
					199 127 139 
					128 195 200 
					202 201 128 
					128 201 203 
					203 130 128 
					128 200 202 
					130 203 129 
					138 129 203 
					131 204 143 
					204 131 132 
					206 205 132 
					132 205 204 
					132 133 137 
					207 206 132 
					208 132 137 
					132 209 207 
					209 132 208 
					137 133 134 
					138 210 135 
					210 211 135 
					135 211 212 
					136 135 212 
					208 137 136 
					136 213 208 
					212 213 136 
					203 210 138 
					139 214 199 
					214 139 215 
					140 215 139 
					215 140 216 
					217 216 140 
					217 140 218 
					218 140 141 
					142 218 141 
					142 143 218 
					219 143 204 
					220 143 219 
					218 143 220 