<?xml version="1.0"?>
<VTKFile type="PolyData" version="0.1" byte_order="LittleEndian" compressor="vtkZLibDataCompressor">
	<PolyData>
		<Piece NumberOfPoints="340" NumberOfVerts="0" NumberOfLines="0" NumberOfStrips="0" NumberOfPolys="676">
		<PointData Normals="Normals">
		<DataArray type="Float32" Name="Normals" NumberOfComponents="3" format="ascii">
			 0.393517 -0.017413  0.919152
			-0.492802  0.060883  0.868009
			 0.763756  0.102298  0.637347
			 0.856425  0.015167  0.516049
			-0.741842  0.042569  0.669222
			 0.084183 -0.010886  0.996391
			 0.999691 -0.022851  0.009800
			 0.970691 -0.062403  0.232090
			-0.906324 -0.055135 -0.418971
			-0.994166 -0.044041  0.098457
			 0.636987  0.341326  0.691190
			-0.527609  0.277463  0.802896
			-0.992791 -0.089904 -0.079265
			 0.858990  0.196542  0.472766
			 0.966694  0.160405 -0.199430
			 0.929238  0.010101 -0.369343
			-0.945119  0.002627 -0.326716
			-0.649410  0.046846  0.758994
			-0.998475  0.054435  0.009164
			-0.244023 -0.010303  0.969715
			-0.037582  0.031989 -0.998781
			 0.350093 -0.050180 -0.935370
			 0.997755 -0.065195 -0.015295
			-0.730237  0.030433 -0.682516
			-0.061816  0.090145 -0.994008
			 0.738021  0.514352  0.436770
			 0.941818  0.183424  0.281664
			 0.102299  0.445215  0.889561
			-0.908236 -0.017241  0.418103
			-0.994535 -0.104149 -0.007274
			-0.832353  0.164358 -0.529315
			-0.936120 -0.259880 -0.236942
			-0.892161 -0.436626 -0.115785
			-0.707256  0.144741 -0.691982
			 0.976035  0.112081 -0.186529
			 0.965410  0.008272 -0.260604
			-0.014668  0.232030 -0.972598
			 0.214324  0.471014 -0.855694
			 0.890634  0.209248 -0.403715
			 0.935335  0.019637  0.353217
			 0.921975  0.207625  0.326885
			-0.814088  0.043172 -0.579135
			-0.985586  0.046806 -0.162572
			-0.690052  0.056840 -0.721525
			 0.098486 -0.168483  0.980772
			 0.895074 -0.183522  0.406402
			-0.611553 -0.084360  0.786693
			-0.931676  0.001101  0.363289
			 0.760373 -0.050121 -0.647550
			-0.309115 -0.010088 -0.950971
			 0.507279  0.447477  0.736500
			 0.795562  0.500925  0.340816
			 0.939820  0.339579  0.037733
			 0.950437  0.231439  0.207619
			 0.992590  0.121325 -0.006702
			-0.167948  0.102759  0.980425
			-0.905910 -0.324568  0.271999
			-0.625204 -0.357650  0.693691
			-0.876519 -0.270584 -0.398119
			-0.840840 -0.265560 -0.471663
			-0.991344 -0.038339  0.125570
			-0.833997 -0.463175  0.299864
			-0.769027  0.367178 -0.523237
			-0.617254 -0.660024 -0.428213
			-0.674431 -0.737719  0.030244
			 0.907357  0.387353 -0.163284
			 0.833617  0.147346 -0.532326
			 0.915321 -0.169307 -0.365408
			 0.973955 -0.199794 -0.107208
			 0.988116  0.090842 -0.123995
			 0.729374  0.518151 -0.446691
			 0.141889  0.744959 -0.651846
			 0.821690  0.292047  0.489421
			 0.813006  0.489381  0.315481
			-0.943064  0.019303 -0.332051
			 0.149153 -0.201534  0.968059
			-0.270505 -0.254226  0.928545
			 0.606486 -0.018335  0.794883
			 0.757769 -0.110638 -0.643075
			 0.934072 -0.352956  0.054145
			 0.876035 -0.207067  0.435529
			 0.966530 -0.038938  0.253580
			-0.636071 -0.270234  0.722764
			-0.849379 -0.118466  0.514317
			-0.940249 -0.046342  0.337319
			-0.984127 -0.021880  0.176113
			-0.163168 -0.062520 -0.984615
			-0.835096 -0.047694 -0.548032
			 0.570689  0.257906  0.779614
			 0.420963  0.140390  0.896148
			 0.769549  0.611161  0.185141
			 0.619840  0.775685 -0.118791
			 0.616983  0.784374  0.063952
			-0.076404 -0.230707  0.970019
			-0.850427 -0.521215  0.071483
			-0.900167 -0.280278 -0.333383
			-0.692844 -0.687064  0.218883
			-0.297980 -0.699740  0.649285
			-0.457673 -0.596870 -0.659001
			-0.632506 -0.222123 -0.742023
			-0.733788  0.116533 -0.669309
			-0.852166  0.057201  0.520136
			-0.842420 -0.284439  0.457627
			-0.814590  0.383787 -0.434915
			-0.994186 -0.019027  0.105986
			-0.998815  0.048569  0.002938
			-0.824245 -0.096342  0.557978
			-0.703776 -0.308101  0.640136
			-0.498444 -0.823909 -0.269681
			-0.917438 -0.304190 -0.256468
			-0.976434 -0.202553 -0.074491
			 0.624896  0.641230 -0.445342
			 0.745417  0.661488 -0.082385
			 0.736925  0.181323 -0.651202
			 0.899440  0.361364 -0.245813
			 0.979741 -0.104488  0.170852
			 0.942288  0.322348  0.090473
			 0.872284  0.158516  0.462595
			 0.747556  0.587700 -0.309467
			 0.380510  0.513498 -0.769111
			 0.912099  0.014673 -0.409707
			 0.715568  0.331347 -0.614957
			 0.787340  0.181625 -0.589159
			-0.203192  0.564112 -0.800307
			 0.297349  0.346617  0.889629
			-0.421768 -0.101469  0.901008
			-0.009575  0.166102  0.986062
			-0.477802 -0.340085  0.809967
			 0.582719  0.477964  0.657259
			 0.929946  0.181431  0.319818
			 0.748492  0.283292  0.599588
			 0.624823 -0.253426 -0.738493
			 0.788038 -0.377878 -0.486008
			 0.860426 -0.509317 -0.016260
			 0.761303 -0.505177  0.406464
			 0.775478  0.159269  0.610957
			 0.805925 -0.034150  0.591032
			 0.850169 -0.450555  0.272420
			 0.978250  0.206863 -0.015331
			-0.882814 -0.302018  0.359757
			-0.978123 -0.181438 -0.101761
			-0.941654 -0.111519 -0.317571
			-0.635280 -0.157629 -0.756024
			-0.080009 -0.244774 -0.966273
			 0.426811  0.417252  0.802330
			 0.515616 -0.305740  0.800415
			 0.580230 -0.106687  0.807435
			 0.530886 -0.167466  0.830732
			 0.509624  0.703242  0.495716
			 0.514875  0.855111  0.060732
			 0.477860  0.878192  0.020699
			 0.325885  0.888096 -0.324168
			 0.413222  0.832936  0.368057
			 0.395680  0.889421  0.228840
			 0.512365  0.817900 -0.261766
			-0.009223 -0.541376  0.840730
			-0.919446 -0.269426 -0.286407
			-0.762099 -0.625928 -0.165587
			-0.506443 -0.843538  0.178772
			 0.256475 -0.512969  0.819196
			 0.107762 -0.882309  0.458168
			 0.105566 -0.707834  0.698446
			-0.214565 -0.926661  0.308645
			-0.539110 -0.689494 -0.483693
			-0.760379  0.260473 -0.594960
			-0.839491  0.406095 -0.361028
			-0.924183  0.192102 -0.330127
			-0.676939  0.297180  0.673378
			-0.868441  0.334193  0.366232
			-0.690065  0.133687 -0.711293
			-0.942602 -0.175709 -0.283950
			-0.909298 -0.415768  0.017706
			-0.978205 -0.171251  0.117424
			-0.928225  0.370082 -0.037929
			-0.733314  0.660293  0.162060
			-0.738945  0.513419  0.436304
			-0.626490  0.338242  0.702213
			 0.585612  0.611044 -0.532620
			 0.742863  0.647177 -0.171220
			 0.551963  0.833868 -0.001032
			 0.833680  0.447814 -0.323172
			 0.962827  0.183736 -0.198003
			 0.762952  0.582691  0.279955
			 0.692453  0.635600  0.341353
			 0.720074  0.690586  0.067709
			 0.938453  0.341064 -0.054605
			 0.818291  0.386566 -0.425401
			 0.559577  0.296241 -0.774025
			 0.386727  0.288302 -0.875971
			-0.213597  0.137169 -0.967244
			 0.348174 -0.112544 -0.930650
			 0.824444 -0.298841 -0.480610
			 0.714044 -0.016699 -0.699901
			 0.885571 -0.220469 -0.408849
			-0.238583  0.605141  0.759528
			-0.016318  0.683593  0.729681
			-0.318093  0.285952  0.903907
			-0.591864  0.436066  0.677896
			-0.823884  0.116729  0.554608
			-0.829288 -0.292986  0.475858
			 0.090219  0.780291  0.618875
			 0.638319  0.681031  0.358812
			 0.232010  0.908871  0.346591
			 0.853520  0.499855  0.147135
			 0.368503 -0.451704 -0.812508
			 0.554823 -0.677170 -0.483335
			 0.712852 -0.394004 -0.580175
			 0.739693  0.089269 -0.666997
			 0.985585 -0.100209 -0.136312
			 0.869248  0.235481 -0.434691
			 0.865654  0.454164  0.210663
			 0.765035  0.464041  0.446528
			 0.738388  0.291998  0.607882
			 0.959766  0.278978  0.031959
			-0.863611 -0.481606  0.149103
			-0.971446 -0.216369  0.097352
			-0.841054 -0.524675 -0.131699
			-0.667319 -0.472108 -0.576020
			-0.672571 -0.289322 -0.681132
			 0.078327 -0.434147 -0.897430
			-0.276305 -0.527486 -0.803377
			 0.491513  0.820841  0.290921
			 0.713753  0.467267  0.521745
			 0.813232 -0.060158  0.578822
			 0.889394 -0.406085  0.209938
			 0.678257 -0.688992  0.255457
			 0.399916 -0.597769  0.694795
			 0.791661  0.610874 -0.010278
			 0.619374  0.705807 -0.343820
			-0.991847 -0.127431  0.000174
			-0.706362 -0.695050  0.134007
			-0.792018 -0.592726 -0.146230
			-0.331481 -0.942695  0.038037
			 0.387390 -0.811965  0.436626
			 0.504191 -0.863137  0.028032
			 0.143318 -0.988827  0.040995
			-0.557305  0.623065  0.548818
			-0.924517 -0.224731  0.307838
			-0.457651 -0.190042 -0.868585
			-0.663519 -0.655865 -0.359978
			-0.627862 -0.778275  0.008815
			-0.837373 -0.516773 -0.178188
			-0.973035 -0.227590 -0.037507
			 0.951537  0.296369 -0.082112
			 0.896310 -0.262593 -0.357313
			 0.873020  0.308829 -0.377439
			 0.887748 -0.457426  0.051616
			 0.996212 -0.043894 -0.075065
			 0.977421 -0.204768 -0.052128
			 0.862117  0.029869 -0.505828
			 0.334016 -0.013075 -0.942477
			 0.540036 -0.176306 -0.822968
			-0.024107 -0.169513 -0.985233
			 0.343190 -0.610974 -0.713395
			-0.058896 -0.370701 -0.926883
			 0.608543 -0.706453 -0.361386
			 0.695341 -0.659836 -0.284813
			-0.432954  0.605429  0.667837
			-0.391593  0.759305  0.519722
			-0.751303  0.558240  0.352011
			-0.508998  0.801156  0.314755
			-0.889141  0.360590  0.281787
			-0.933158 -0.044131  0.356748
			-0.878694 -0.306635  0.365885
			 0.610434  0.787747  0.082614
			 0.240199  0.923123  0.300246
			-0.175927  0.828034  0.532362
			 0.399013  0.911574  0.099101
			 0.138146 -0.752947 -0.643418
			 0.382185 -0.816411 -0.432906
			 0.612330 -0.621997 -0.488028
			 0.610270 -0.194068 -0.768054
			 0.720105  0.487782 -0.493475
			 0.397907  0.090726 -0.912929
			 0.407932  0.426368 -0.807342
			 0.720913  0.683124 -0.116729
			 0.596701  0.760718  0.255453
			 0.686351  0.694006  0.217435
			 0.809604  0.481030  0.336379
			-0.911229 -0.394755  0.117601
			-0.616759 -0.563043 -0.550083
			-0.541576 -0.670182 -0.507496
			-0.836602 -0.449592 -0.312992
			-0.151021 -0.761689 -0.630097
			 0.968393  0.228233  0.100620
			 0.982012 -0.151260  0.113021
			 0.825339 -0.539058 -0.168025
			-0.412332 -0.784043  0.463960
			-0.039577 -0.977448  0.207435
			 0.409587 -0.907195 -0.096104
			-0.807378 -0.464312  0.364082
			-0.285510 -0.958369 -0.003529
			-0.138848 -0.862748 -0.486197
			-0.260123 -0.965158  0.028395
			-0.567739 -0.774766 -0.278226
			-0.644239 -0.469171 -0.604015
			-0.885296 -0.363184 -0.290429
			 0.962298 -0.035505 -0.269670
			 0.441260 -0.849656  0.288745
			 0.767592 -0.640294  0.028744
			 0.659040 -0.253608 -0.708060
			 0.608686 -0.540797 -0.580552
			 0.085262 -0.312734 -0.946006
			 0.027251 -0.322580 -0.946150
			 0.126129 -0.848232 -0.514388
			 0.134168 -0.980932 -0.140608
			 0.103080 -0.993899 -0.039224
			-0.794320  0.569605 -0.211202
			-0.186982  0.877501  0.441623
			-0.208076  0.975978  0.064581
			-0.377871  0.828126 -0.414030
			-0.963839  0.254276  0.079739
			-0.999763 -0.020295 -0.007911
			 0.192456  0.916242  0.351371
			-0.171522 -0.761652 -0.624873
			 0.025257 -0.779728 -0.625608
			 0.311080 -0.651284 -0.692140
			 0.268010 -0.246166 -0.931436
			 0.221908  0.775915 -0.590519
			-0.121588  0.184919 -0.975203
			 0.095642  0.519422 -0.849149
			 0.170345  0.978145 -0.119225
			-0.912940  0.076492 -0.400860
			-0.385763 -0.410233 -0.826375
			-0.701545  0.013713 -0.712493
			-0.484638 -0.106472 -0.868211
			-0.342037 -0.860217  0.378204
			 0.000437 -0.908892  0.417031
			-0.725371 -0.685028  0.067621
			-0.431308 -0.759994 -0.486192
			-0.524246 -0.776380 -0.349857
			-0.226564 -0.643491 -0.731155
			-0.328616 -0.521048 -0.787731
			 0.453935 -0.884996  0.103566
			 0.038399 -0.988324  0.147452
			 0.294669 -0.828004 -0.477053
			-0.939102  0.264025 -0.219951
			-0.612024  0.396457 -0.684287
			-0.203526  0.572942 -0.793924
			-0.087273 -0.289584 -0.953166
		</DataArray>
	</PointData>
	<Points>
		<DataArray type="Float32" NumberOfComponents="3" format="ascii">
			 0.001799 -0.185090  0.007099
			-0.003350 -0.228611  0.009503
			 0.010028 -0.237411  0.002364
			 0.009249 -0.215348  0.002383
			-0.005689 -0.179592  0.005820
			 0.006976 -0.147072  0.007765
			 0.011714 -0.176977 -0.000578
			 0.013846 -0.143630  0.003778
			-0.003812 -0.227873 -0.007492
			-0.006928 -0.205987  0.004341
			 0.006233 -0.248931  0.010033
			-0.000816 -0.249482  0.014296
			-0.002494 -0.245152 -0.003752
			 0.009732 -0.247093  0.005444
			 0.011497 -0.245066 -0.001727
			 0.010275 -0.215904 -0.001104
			-0.005907 -0.204749 -0.004532
			-0.003849 -0.155862  0.005201
			-0.006372 -0.156088 -0.000846
			 0.002982 -0.087285  0.008853
			-0.002588 -0.174956 -0.007706
			 0.004617 -0.123935 -0.007459
			 0.015871 -0.099007  0.001285
			-0.002402 -0.236576 -0.008759
			 0.000199 -0.236809 -0.010268
			 0.009725 -0.265930  0.017822
			 0.011550 -0.266077  0.013021
			 0.002385 -0.262519  0.020880
			-0.000267 -0.263326  0.019133
			 0.000137 -0.261728 -0.013963
			 0.000289 -0.260952 -0.015839
			-0.001001 -0.266234  0.005904
			 0.001356 -0.265136 -0.001824
			-0.000292 -0.253102 -0.012872
			 0.015402 -0.272523  0.000523
			 0.013720 -0.266941 -0.004432
			 0.000593 -0.245043 -0.011534
			 0.003114 -0.262391 -0.017335
			 0.011831 -0.260812 -0.008921
			 0.014079 -0.269495  0.004237
			 0.014982 -0.272819  0.002815
			-0.004666 -0.155934 -0.004892
			-0.002471 -0.098081 -0.000433
			-0.002714 -0.127486 -0.004166
			 0.009014 -0.036122  0.010724
			 0.017710 -0.031927  0.006055
			 0.003805 -0.036349  0.009732
			-0.001420 -0.072846  0.003001
			 0.013355 -0.082491 -0.003956
			 0.004768 -0.097472 -0.008318
			 0.010664 -0.271060  0.023071
			 0.012476 -0.271822  0.021645
			 0.011836 -0.269512  0.017285
			 0.012171 -0.273522  0.008143
			 0.011816 -0.272219  0.011956
			 0.006713 -0.271150  0.023984
			 0.001164 -0.280161  0.015096
			 0.005133 -0.278292  0.022504
			-0.000959 -0.271316  0.008967
			-0.000785 -0.276024  0.010468
			 0.000851 -0.274071 -0.019295
			 0.001634 -0.269096 -0.011018
			 0.000669 -0.265934 -0.018600
			 0.003122 -0.269665  0.003084
			 0.006403 -0.270861 -0.000663
			 0.016005 -0.275375  0.000722
			 0.014606 -0.273710 -0.001640
			 0.013070 -0.271345 -0.004357
			 0.012746 -0.270513 -0.008464
			 0.012976 -0.270311 -0.012485
			 0.011946 -0.273745 -0.018102
			 0.003102 -0.270632 -0.023726
			 0.013531 -0.273940  0.004835
			 0.016200 -0.275906  0.003073
			-0.001405 -0.076583 -0.000925
			 0.011978 -0.007401  0.018061
			 0.004079 -0.020977  0.012957
			 0.016363 -0.002449  0.017091
			 0.011787 -0.059391 -0.008311
			 0.020077 -0.022983 -0.003336
			 0.022245 -0.008154  0.002855
			 0.023146 -0.002912  0.010358
			 0.000630 -0.021321  0.011259
			-0.001515 -0.036095  0.003277
			-0.001672 -0.044119  0.003079
			-0.001482 -0.050067  0.003089
			 0.008024 -0.045182 -0.009394
			-0.000373 -0.054318 -0.002387
			 0.015305 -0.277008  0.021597
			 0.012952 -0.276350  0.023532
			 0.014032 -0.273977  0.020262
			 0.012389 -0.274735  0.013168
			 0.016908 -0.278428  0.005072
			 0.010552 -0.279974  0.024284
			 0.003837 -0.287711  0.011597
			 0.001474 -0.281148  0.010626
			 0.005304 -0.289341  0.011677
			 0.010664 -0.286939  0.020266
			 0.002202 -0.272124  0.006592
			 0.006933 -0.274058  0.005641
			 0.003467 -0.276978  0.007734
			 0.001923 -0.277357 -0.014587
			 0.002585 -0.272101 -0.012735
			 0.001000 -0.276109 -0.030265
			 0.000155 -0.276906 -0.021411
			 0.010375 -0.275063 -0.002217
			 0.009034 -0.276796 -0.007788
			 0.004868 -0.274847 -0.011474
			 0.006124 -0.270861  0.001862
			 0.009920 -0.273976  0.000839
			 0.009804 -0.274572 -0.000659
			 0.015467 -0.277686 -0.002781
			 0.018969 -0.279086  0.000821
			 0.011959 -0.275699 -0.004260
			 0.010374 -0.276636 -0.007207
			 0.010435 -0.275613 -0.009300
			 0.013254 -0.273820 -0.015273
			 0.011898 -0.275694 -0.012847
			 0.014688 -0.276858 -0.016643
			 0.006945 -0.277934 -0.031958
			 0.012259 -0.279221 -0.023197
			 0.015260 -0.279508 -0.018105
			 0.009334 -0.279531 -0.030693
			 0.003215 -0.276497 -0.031543
			 0.012191  0.008936  0.018523
			 0.000109 -0.001284  0.018412
			 0.008603  0.007031  0.019841
			-0.000426 -0.011691  0.015116
			 0.013858  0.010270  0.016186
			 0.022406  0.001727  0.011331
			 0.021214  0.004869  0.011972
			 0.019328 -0.023318 -0.006454
			 0.027532 -0.007962 -0.008967
			 0.024582 -0.014349 -0.005025
			 0.024244 -0.014498 -0.003106
			 0.022760  0.002184  0.003150
			 0.028434 -0.001803 -0.000333
			 0.027525 -0.010095 -0.002284
			 0.021860  0.001951  0.006337
			-0.003112 -0.015706  0.008883
			-0.003690 -0.027284 -0.001426
			-0.002195 -0.035753 -0.001523
			 0.001496 -0.036511 -0.007199
			 0.006746 -0.034938 -0.010174
			 0.017910 -0.277270  0.020902
			 0.025639 -0.287137  0.017391
			 0.017043 -0.283602  0.020619
			 0.015847 -0.284750  0.022096
			 0.015076 -0.275000  0.020430
			 0.015838 -0.275322  0.019479
			 0.022859 -0.277335  0.016112
			 0.019413 -0.277467  0.008330
			 0.020431 -0.276966  0.019083
			 0.016871 -0.275777  0.019625
			 0.019529 -0.279709  0.004248
			 0.013602 -0.285745  0.022097
			 0.004667 -0.283688  0.004539
			 0.005983 -0.290414  0.008811
			 0.009291 -0.292475  0.008392
			 0.016134 -0.287735  0.020041
			 0.019098 -0.293466  0.014567
			 0.019651 -0.292094  0.016268
			 0.016166 -0.293980  0.013138
			 0.006889 -0.272107  0.004133
			 0.007296 -0.275289  0.005035
			 0.007728 -0.278143  0.002142
			 0.004840 -0.281965  0.004207
			 0.005385 -0.277322 -0.011709
			 0.004146 -0.283395 -0.006313
			 0.001143 -0.279706 -0.031622
			 0.001033 -0.283655 -0.031299
			 0.002691 -0.285557 -0.019793
			 0.002266 -0.284347 -0.012170
			 0.005731 -0.281816  0.000291
			 0.007449 -0.279485 -0.006298
			 0.008334 -0.278226 -0.008386
			 0.007653 -0.277386 -0.009130
			 0.012474 -0.276739 -0.004538
			 0.019231 -0.281817 -0.006549
			 0.015965 -0.280106 -0.009489
			 0.021597 -0.281719  0.003736
			 0.021801 -0.285360 -0.003615
			 0.010891 -0.276691 -0.009802
			 0.014737 -0.277598 -0.014784
			 0.019167 -0.282155 -0.011340
			 0.021742 -0.285655 -0.015524
			 0.021021 -0.285288 -0.017958
			 0.020460 -0.285060 -0.018454
			 0.018223 -0.283737 -0.018828
			 0.002652 -0.279613 -0.032736
			 0.006520 -0.281835 -0.032712
			 0.009095 -0.286886 -0.029146
			 0.013015 -0.281580 -0.020652
			 0.011360 -0.284552 -0.022819
			 0.006919  0.008771  0.018468
			 0.010003  0.010901  0.017457
			 0.003163  0.004880  0.019233
			-0.000713  0.003938  0.017513
			-0.004893  0.002727  0.013054
			-0.006596 -0.008877  0.010522
			 0.011637  0.012472  0.016033
			 0.016766  0.011480  0.011701
			 0.012435  0.013504  0.013857
			 0.020629  0.007578  0.010248
			 0.008899 -0.019277 -0.013909
			 0.016399 -0.007600 -0.017586
			 0.018976 -0.004730 -0.018703
			 0.021506  0.002714 -0.017155
			 0.029314 -0.005276 -0.006149
			 0.027366 -0.002080 -0.008812
			 0.019123  0.008930  0.006955
			 0.024212  0.005065  0.000191
			 0.027668  0.000498 -0.000148
			 0.029290  0.000062 -0.003121
			-0.006442 -0.013491 -0.004023
			-0.004813 -0.017875 -0.003850
			-0.005550 -0.015187 -0.008004
			-0.000428 -0.020342 -0.012446
			 0.001399 -0.028128 -0.009555
			 0.005578 -0.020150 -0.014406
			 0.002461 -0.020245 -0.014061
			 0.015918 -0.275489  0.020064
			 0.025039 -0.279809  0.017812
			 0.026303 -0.284532  0.017473
			 0.026310 -0.288247  0.014352
			 0.024375 -0.290751  0.014656
			 0.023799 -0.289452  0.017053
			 0.025603 -0.279501  0.015252
			 0.024239 -0.279817  0.009443
			 0.005280 -0.284936  0.001150
			 0.009197 -0.292958  0.000045
			 0.007124 -0.290177  0.006122
			 0.009455 -0.293011  0.005980
			 0.021530 -0.292589  0.014855
			 0.021646 -0.293110  0.012258
			 0.019114 -0.294177  0.012346
			 0.005726 -0.279305 -0.009082
			 0.004405 -0.289820 -0.006056
			 0.002265 -0.283901 -0.032278
			 0.002878 -0.288602 -0.030602
			 0.004785 -0.288445 -0.018832
			 0.003485 -0.287338 -0.017438
			 0.002902 -0.287411 -0.011687
			 0.020476 -0.284344 -0.006613
			 0.022263 -0.289657  0.004170
			 0.026454 -0.282454  0.010562
			 0.020222 -0.290192 -0.006195
			 0.020916 -0.287303 -0.006589
			 0.021710 -0.293145 -0.016036
			 0.021616 -0.289040 -0.018013
			 0.020452 -0.288618 -0.019007
			 0.012995 -0.284320 -0.020538
			 0.004339 -0.283868 -0.032658
			 0.005999 -0.289318 -0.030616
			 0.003815 -0.287461 -0.031620
			 0.007864 -0.289154 -0.028847
			 0.009457 -0.289589 -0.022461
			 0.004255  0.007757  0.018025
			 0.000509  0.011661  0.009347
			-0.008955  0.011027  0.000657
			-0.005172  0.014309  0.001820
			-0.011693  0.007329 -0.001000
			-0.012897  0.001291 -0.000873
			-0.011109 -0.004742 -0.000596
			 0.016122  0.012436  0.009300
			 0.008909  0.015048  0.006788
			 0.004107  0.014771  0.007825
			 0.014797  0.012953  0.007967
			 0.004367 -0.013783 -0.019174
			 0.007792 -0.012814 -0.019188
			 0.015934 -0.007349 -0.020916
			 0.015211 -0.004064 -0.023192
			 0.022099  0.006928 -0.014494
			 0.013144 -0.000099 -0.024711
			 0.014081  0.006456 -0.022135
			 0.019421  0.014148 -0.006817
			 0.019306  0.012915 -0.000164
			 0.017944  0.011297  0.006168
			 0.028335  0.001746 -0.001910
			-0.012659 -0.005954 -0.005477
			-0.004235 -0.012595 -0.019625
			-0.001592 -0.017355 -0.014403
			-0.010268 -0.010055 -0.012257
			 0.001120 -0.015900 -0.017776
			 0.026844 -0.282084  0.014628
			 0.027065 -0.285592  0.014752
			 0.026083 -0.288677  0.010292
			 0.008311 -0.294727 -0.006222
			 0.014581 -0.294135 -0.000954
			 0.018793 -0.292994  0.005317
			 0.004037 -0.293921 -0.009293
			 0.005039 -0.289678 -0.027915
			 0.004859 -0.289260 -0.030719
			 0.006993 -0.289561 -0.020498
			 0.004330 -0.288191 -0.017506
			 0.005216 -0.290720 -0.015776
			 0.004424 -0.295222 -0.011857
			 0.026967 -0.285769  0.010540
			 0.016187 -0.294650 -0.004533
			 0.019961 -0.296604 -0.015550
			 0.021014 -0.293088 -0.018069
			 0.019276 -0.296395 -0.017619
			 0.017588 -0.295010 -0.018729
			 0.011778 -0.290798 -0.019294
			 0.010206 -0.289953 -0.020030
			 0.006764 -0.289786 -0.028426
			 0.009237 -0.290014 -0.020952
			-0.009856  0.010756 -0.007936
			 0.003475  0.017205  0.004241
			 0.002346  0.018272  0.000188
			-0.002876  0.013174 -0.015289
			-0.013346  0.003740 -0.003451
			-0.013820  0.000323 -0.005520
			 0.008347  0.017403  0.003433
			-0.000163 -0.012817 -0.022230
			 0.003912 -0.012595 -0.023285
			 0.008247 -0.011289 -0.023669
			 0.009227 -0.007324 -0.025021
			 0.010703  0.013751 -0.017166
			 0.004305  0.000591 -0.025761
			 0.008804  0.008128 -0.022602
			 0.010118  0.018102 -0.008024
			-0.012127 -0.001545 -0.013378
			-0.001179 -0.010082 -0.023536
			-0.007661 -0.000633 -0.019901
			-0.001926 -0.005885 -0.024294
			 0.007751 -0.298026 -0.011265
			 0.013707 -0.295905 -0.006250
			 0.004848 -0.296140 -0.011310
			 0.007930 -0.290155 -0.017993
			 0.007983 -0.298239 -0.013865
			 0.013712 -0.299382 -0.016013
			 0.010488 -0.291548 -0.018796
			 0.017115 -0.299007 -0.014595
			 0.013969 -0.299620 -0.013777
			 0.016792 -0.298670 -0.016869
			-0.013006  0.003894 -0.008103
			-0.004185  0.006219 -0.020300
			 0.001831  0.008463 -0.022093
			 0.002800 -0.009569 -0.024919
		</DataArray>
	</Points>
			<Polys>
				<DataArray type="Int32" Name="connectivity" format="ascii">
					0 1 2 
					0 2 3 
					4 0 5 
					1 0 4 
					6 0 3 
					7 0 6 
					0 7 5 
					8 1 9 
					10 2 1 
					1 11 10 
					8 12 1 
					11 1 12 
					4 9 1 
					13 14 2 
					10 13 2 
					14 3 2 
					15 6 3 
					15 3 14 
					16 9 4 
					17 18 4 
					17 4 5 
					18 16 4 
					17 5 19 
					19 5 7 
					15 20 6 
					6 20 7 
					21 7 20 
					7 21 22 
					19 7 22 
					20 8 16 
					8 23 12 
					8 9 16 
					23 8 24 
					24 8 20 
					10 25 26 
					13 10 26 
					10 11 27 
					25 10 27 
					12 28 11 
					11 28 27 
					29 12 30 
					31 28 12 
					31 12 32 
					29 32 12 
					33 12 23 
					33 30 12 
					14 13 26 
					20 14 24 
					14 34 35 
					15 14 20 
					36 14 37 
					38 37 14 
					24 14 36 
					35 38 14 
					14 39 40 
					34 14 40 
					26 39 14 
					16 18 41 
					16 41 20 
					19 18 17 
					18 19 42 
					43 41 18 
					43 18 42 
					44 19 45 
					44 46 19 
					19 46 47 
					47 42 19 
					22 45 19 
					43 20 41 
					21 20 43 
					48 21 49 
					48 22 21 
					49 21 43 
					45 22 48 
					36 23 24 
					36 33 23 
					27 50 25 
					51 25 50 
					25 51 52 
					52 26 25 
					39 26 53 
					54 53 26 
					52 54 26 
					55 27 28 
					55 50 27 
					28 56 57 
					57 55 28 
					31 58 28 
					56 28 59 
					58 59 28 
					60 61 29 
					61 32 29 
					30 62 29 
					29 62 60 
					37 62 30 
					33 37 30 
					63 31 32 
					31 63 58 
					32 64 63 
					64 32 61 
					33 36 37 
					34 65 66 
					67 35 34 
					66 67 34 
					34 40 65 
					68 38 35 
					35 67 68 
					38 69 37 
					70 37 69 
					70 71 37 
					71 62 37 
					68 69 38 
					72 40 39 
					72 39 53 
					65 40 73 
					73 40 72 
					42 74 49 
					42 47 74 
					49 43 42 
					44 75 76 
					44 76 46 
					75 44 45 
					45 77 75 
					48 78 45 
					78 79 45 
					45 79 80 
					80 81 45 
					81 77 45 
					46 76 82 
					46 82 83 
					84 46 83 
					84 85 46 
					47 46 85 
					85 74 47 
					78 48 49 
					86 49 87 
					49 74 87 
					86 78 49 
					88 50 89 
					50 55 89 
					88 51 50 
					90 51 88 
					90 52 51 
					52 90 91 
					52 91 54 
					92 72 53 
					54 91 53 
					92 53 91 
					93 55 57 
					55 93 89 
					94 57 56 
					95 56 59 
					94 56 95 
					96 97 57 
					57 97 93 
					94 96 57 
					59 58 98 
					98 58 63 
					59 98 99 
					59 99 100 
					59 100 95 
					101 102 60 
					102 61 60 
					62 103 60 
					104 60 103 
					60 104 101 
					64 61 105 
					106 105 61 
					107 106 61 
					61 102 107 
					71 103 62 
					63 108 98 
					63 64 108 
					109 108 64 
					110 109 64 
					105 110 64 
					111 66 65 
					112 111 65 
					112 65 73 
					66 113 67 
					113 66 111 
					114 68 67 
					67 113 114 
					115 69 68 
					115 68 114 
					70 69 116 
					116 69 117 
					115 117 69 
					118 70 116 
					70 119 71 
					120 70 121 
					118 121 70 
					120 122 70 
					119 70 122 
					123 71 119 
					71 123 103 
					73 72 92 
					112 73 92 
					87 74 85 
					77 124 75 
					125 75 126 
					126 75 124 
					75 125 127 
					127 76 75 
					127 82 76 
					124 77 128 
					129 77 81 
					77 129 130 
					77 130 128 
					131 78 86 
					79 78 131 
					131 132 79 
					133 134 79 
					79 132 133 
					134 80 79 
					135 80 136 
					80 134 137 
					136 80 137 
					135 138 80 
					80 138 81 
					129 81 138 
					82 127 139 
					139 83 82 
					83 139 140 
					84 83 140 
					84 140 141 
					141 85 84 
					141 87 85 
					142 86 87 
					86 143 131 
					86 142 143 
					142 87 141 
					144 88 145 
					88 146 145 
					147 146 88 
					88 89 147 
					148 90 88 
					144 148 88 
					93 147 89 
					90 149 91 
					149 90 148 
					91 150 151 
					92 91 151 
					150 91 152 
					153 152 91 
					153 91 149 
					92 151 154 
					154 112 92 
					93 97 155 
					93 155 147 
					156 96 94 
					94 95 156 
					95 100 156 
					157 96 156 
					96 157 158 
					97 96 158 
					159 155 97 
					97 160 161 
					97 162 160 
					97 158 162 
					159 97 161 
					163 98 108 
					163 99 98 
					164 99 109 
					109 99 163 
					99 164 100 
					164 165 100 
					166 100 165 
					166 156 100 
					101 107 102 
					167 107 101 
					101 168 167 
					104 168 101 
					169 170 103 
					170 104 103 
					123 169 103 
					104 170 171 
					168 104 172 
					172 104 171 
					173 165 105 
					110 105 165 
					174 105 175 
					106 175 105 
					173 105 174 
					176 106 167 
					107 167 106 
					175 106 176 
					109 163 108 
					164 109 165 
					109 110 165 
					113 111 177 
					111 178 179 
					114 177 111 
					114 111 179 
					178 111 112 
					112 180 181 
					154 180 112 
					112 181 178 
					114 113 177 
					182 115 114 
					179 182 114 
					182 117 115 
					183 118 116 
					117 183 116 
					117 182 183 
					184 185 118 
					185 186 118 
					187 118 186 
					121 118 188 
					187 188 118 
					118 183 184 
					123 119 189 
					190 119 122 
					190 189 119 
					122 120 191 
					120 192 193 
					193 191 120 
					192 120 121 
					188 192 121 
					191 190 122 
					189 169 123 
					126 124 194 
					124 128 195 
					195 194 124 
					125 126 196 
					197 125 196 
					125 197 198 
					198 199 125 
					125 199 127 
					126 194 196 
					139 127 199 
					200 195 128 
					128 201 202 
					203 201 128 
					128 130 203 
					202 200 128 
					129 203 130 
					203 129 138 
					143 204 131 
					132 131 204 
					132 205 206 
					204 205 132 
					137 133 132 
					132 206 207 
					137 132 208 
					207 209 132 
					208 132 209 
					134 133 137 
					135 210 138 
					135 211 210 
					212 211 135 
					212 135 136 
					136 137 208 
					208 213 136 
					136 213 212 
					138 210 203 
					199 214 139 
					215 139 214 
					139 215 140 
					216 140 215 
					140 216 217 
					218 140 217 
					141 140 218 
					141 218 142 
					218 143 142 
					204 143 219 
					219 143 220 
					220 143 218 