<?xml version="1.0"?>
<VTKFile type="PolyData" version="0.1" byte_order="LittleEndian" compressor="vtkZLibDataCompressor">
	<PolyData>
		<Piece NumberOfPoints="309" NumberOfVerts="0" NumberOfLines="0" NumberOfStrips="0" NumberOfPolys="588">
		<PointData Normals="Normals">
		<DataArray type="Float32" Name="Normals" NumberOfComponents="3" format="ascii">
			-0.241965  0.928387 -0.282046
			-0.421615  0.891295 -0.166833
			-0.670330  0.714611 -0.199971
			-0.776204  0.488631 -0.398431
			-0.649453  0.374399 -0.661843
			-0.390814  0.431251 -0.813195
			-0.165920  0.625156 -0.762660
			-0.101672  0.835461 -0.540063
			 0.133272  0.890320 -0.435395
			-0.021126  0.997308  0.070220
			-0.330077  0.933471  0.140289
			-0.761722  0.635977  0.123745
			-0.924037  0.314799 -0.216928
			-0.755872  0.122545 -0.643149
			-0.340825  0.210203 -0.916326
			 0.080834  0.456267 -0.886164
			 0.226855  0.811746 -0.538149
			 0.168803  0.921058 -0.350939
			 0.082124  0.974772  0.207547
			-0.235549  0.878284  0.416093
			-0.784827  0.490265  0.379061
			-0.996652  0.062476 -0.052741
			-0.776039 -0.146179 -0.613510
			-0.224178 -0.064771 -0.972393
			 0.281896  0.277214 -0.918524
			 0.472616  0.720796 -0.507038
			 0.438743  0.870076 -0.224663
			 0.283568  0.855822  0.432616
			 0.015634  0.885027  0.465276
			-0.624657  0.474151  0.620472
			-0.897849 -0.196578  0.393985
			-0.761345 -0.592749 -0.262684
			-0.256323 -0.565235 -0.784097
			 0.536690 -0.260257 -0.802640
			 0.738515  0.441236 -0.509810
			 0.660496  0.743759 -0.102798
			 0.644355  0.726915  0.237491
			 0.023599  0.879573  0.475179
			-0.625617  0.509551  0.590729
			-0.912367  0.192540  0.361268
			-0.812395 -0.553530  0.183355
			-0.649047 -0.704337 -0.287484
			 0.123341 -0.629996 -0.766741
			 0.707297 -0.140960 -0.692720
			 0.838022  0.473805 -0.270608
			 0.759529  0.547506  0.351216
			 0.936343  0.072560  0.343506
			 0.846878  0.348061  0.402059
			 0.187341  0.469829  0.862650
			-0.238380  0.268495  0.933320
			-0.778725  0.092855  0.620455
			-0.914913 -0.281887  0.288917
			-0.786499 -0.601681  0.139281
			-0.851565 -0.512150 -0.111983
			-0.303144 -0.457790 -0.835782
			 0.397720 -0.368529 -0.840241
			 0.683419 -0.398808 -0.611466
			 0.931200 -0.099411 -0.350690
			 0.998150 -0.008967  0.060136
			 0.757891  0.195298  0.622463
			-0.442859  0.707933 -0.550187
			 0.984627 -0.153851  0.082701
			 0.962952  0.002947 -0.269657
			 0.945927 -0.079786  0.314413
			 0.947308 -0.144623  0.285819
			 0.323654 -0.178891  0.929110
			 0.373107 -0.240141  0.896172
			-0.440819 -0.135038  0.887380
			-0.315257 -0.282541  0.905971
			-0.915464 -0.072115  0.395886
			-0.796242 -0.220124  0.563511
			-0.994844 -0.067766  0.075450
			-0.945503  0.001099 -0.325611
			-0.867654 -0.101187 -0.486763
			-0.362844 -0.042362 -0.930887
			-0.157149 -0.149505 -0.976193
			 0.467906 -0.037114 -0.882999
			 0.719646 -0.160479 -0.675542
			 0.962610 -0.055757 -0.265090
			 0.972865 -0.231316  0.005203
			 0.982466 -0.084589  0.166146
			 0.981535 -0.031981 -0.188592
			 0.885937 -0.044490  0.461667
			 0.115208 -0.037877  0.992619
			-0.610360 -0.017562  0.791929
			-0.950644  0.004913  0.310246
			-0.964308  0.006572 -0.264701
			-0.546217  0.059954 -0.835495
			 0.254958  0.036742 -0.966254
			 0.829007 -0.025922 -0.558637
			 0.994718 -0.025124 -0.099525
			 0.989941 -0.039806 -0.135769
			 0.893612 -0.060112  0.444797
			 0.218010 -0.042508  0.975020
			-0.554327 -0.007801  0.832263
			-0.952176  0.000464  0.305551
			-0.945622  0.056378 -0.320346
			-0.276729  0.081357 -0.957498
			 0.605274  0.016688 -0.795842
			 0.909055 -0.039602 -0.414790
			 0.954586 -0.022579 -0.297080
			 0.923616 -0.081184  0.374622
			 0.341090 -0.077575  0.936824
			-0.329519 -0.071182  0.941462
			-0.857923 -0.033758  0.512668
			-0.998439  0.031365 -0.046206
			-0.609832  0.072521 -0.789205
			 0.429353  0.035802 -0.902427
			-0.764894 -0.405399  0.500589
			-0.776410 -0.492635  0.393063
			-0.971393 -0.197381  0.132048
			-0.929065 -0.354124  0.106930
			-0.920533 -0.221924 -0.321510
			 0.391504 -0.215172 -0.894665
			 0.711999 -0.367368 -0.598413
			 0.716689 -0.471528 -0.513826
			 0.874237 -0.477134 -0.089734
			 0.892208 -0.450570 -0.030852
			 0.808883 -0.376434  0.451670
			 0.890101 -0.423324 -0.168868
			 0.891317 -0.415140  0.182242
			 0.882279 -0.192315  0.429650
			 0.909237 -0.136289  0.393336
			 0.933109 -0.259752  0.248670
			 0.907367 -0.213420  0.362129
			 0.306057 -0.190278  0.932804
			-0.380544 -0.362686  0.850673
			 0.318574 -0.330503  0.888413
			-0.235764 -0.407481  0.882255
			 0.402369 -0.113316 -0.908438
			 0.216276 -0.387801 -0.896011
			-0.262611 -0.652644 -0.710697
			-0.298542 -0.926215 -0.230215
			 0.074983 -0.737758 -0.670888
			 0.344718 -0.764863 -0.544200
			-0.600094  0.023092 -0.799596
			-0.747168 -0.111063 -0.655290
			-0.735035 -0.654455 -0.177237
			-0.719649 -0.689121 -0.084958
			-0.740419 -0.488711 -0.461456
			-0.484463 -0.795245 -0.364529
			 0.085201  0.658875 -0.747411
			-0.894608  0.346068 -0.282691
			-0.991060  0.012452 -0.132834
			-0.691517 -0.600558 -0.401415
			-0.944358 -0.148346 -0.293565
			-0.939052 -0.327945 -0.103120
			-0.109432  0.803846 -0.584684
			-0.995519 -0.041596  0.084923
			-0.987827 -0.111081  0.108896
			-0.914842  0.291406  0.279546
			-0.956325  0.291966  0.014110
			-0.843326  0.189985 -0.502700
			-0.740370 -0.083770 -0.666959
			-0.835304 -0.172746  0.521944
			-0.920294  0.110741  0.375228
			-0.086781  0.939184 -0.332268
			-0.724374 -0.134689 -0.676122
			-0.367458 -0.130611 -0.920823
			-0.507775 -0.174462 -0.843639
			 0.851820  0.523639  0.014296
			-0.841676 -0.503100  0.196141
			-0.694816 -0.662222  0.280521
			-0.793453 -0.607858  0.030671
			-0.694432 -0.557535 -0.454882
			-0.476099 -0.473900 -0.740775
			-0.518770 -0.346975 -0.781336
			 0.978328 -0.159539  0.131989
			-0.798819 -0.550527 -0.242503
			 0.829924  0.503123 -0.241026
			 0.738857  0.618423  0.267663
			 0.701330  0.710032  0.063173
			 0.622553  0.771087 -0.133614
			 0.787753  0.611330 -0.075634
			 0.885088  0.136826 -0.444858
			 0.947331  0.181647  0.263758
			 0.968711  0.237628  0.071643
			 0.904933  0.410747 -0.111278
			 0.883772  0.466501  0.036394
			 0.852569 -0.371496 -0.367583
			 0.904746 -0.315326  0.286364
			 0.941129 -0.323709  0.097406
			 0.948710 -0.290584 -0.124542
			 0.968900 -0.242881  0.047338
			 0.546025 -0.787578  0.285618
			 0.573760 -0.793950  0.201103
			 0.534371 -0.840657 -0.087997
			 0.510192 -0.859474 -0.031765
			-0.143870 -0.944136  0.296494
			-0.120397 -0.983277  0.136640
			-0.047506 -0.992501 -0.112631
			 0.067596 -0.993412 -0.092539
			-0.751091 -0.587499  0.301175
			-0.722285 -0.689261  0.056770
			-0.631867 -0.716261 -0.296167
			-0.568936 -0.822382  0.000330
			-0.960600 -0.146299  0.236316
			-0.966642 -0.254528 -0.028613
			-0.857656 -0.264803 -0.440801
			-0.890472 -0.424749 -0.163238
			 0.710035 -0.508625 -0.486981
			 0.683429 -0.238088 -0.690100
			 0.816331  0.205356 -0.539845
			 0.846203  0.358155 -0.394546
			 0.696073  0.685778  0.212584
			 0.821179 -0.174612 -0.543301
			 0.786005  0.037730 -0.617068
			 0.816454 -0.060255 -0.574258
			 0.732578  0.510246 -0.450532
			 0.962461 -0.242147 -0.122610
			 0.985225 -0.043929  0.165534
			 0.704197  0.558382 -0.438540
			 0.930785  0.340753 -0.132391
			-0.467923  0.336732  0.817104
			-0.999076 -0.042835  0.003570
			-0.944865 -0.111212 -0.307998
			 0.047043  0.483686 -0.873976
			-0.979213 -0.188544 -0.074787
			-0.956851 -0.103925  0.271358
			-0.848526  0.121085  0.515114
			-0.837348 -0.503961  0.211829
			-0.850658 -0.409592  0.329570
			-0.782532 -0.265550  0.563141
			-0.640367  0.008332  0.768024
			 0.439317  0.612040  0.657577
			-0.660774 -0.734556  0.154288
			-0.501274 -0.640305  0.582008
			-0.251396 -0.496841  0.830632
			-0.196072 -0.290156  0.936678
			-0.033799  0.160406  0.986472
			-0.269436 -0.771981  0.575717
			-0.053993 -0.517273  0.854116
			 0.148472 -0.168105  0.974524
			 0.610070  0.724889  0.319921
			 0.408025  0.170260  0.896955
			 0.046951 -0.996400 -0.070593
			 0.620239 -0.777421 -0.104505
			 0.975552 -0.207031 -0.073734
			 0.872972  0.444224 -0.201458
			 0.671892  0.730514 -0.122109
			-0.218241 -0.974347  0.054935
			 0.350171 -0.933821 -0.073203
			 0.825083 -0.562775 -0.050225
			 0.994194 -0.080934 -0.070905
			 0.945104  0.307372 -0.110907
			 0.656532  0.744358 -0.122050
			 0.323149  0.944250 -0.062985
			-0.076772 -0.876381  0.475461
			 0.307397 -0.655417  0.689881
			 0.669972 -0.226073  0.707127
			 0.734861  0.296481  0.609982
			 0.568857  0.713629  0.408823
			-0.981359  0.190579  0.024787
			 0.682279  0.729359  0.050310
			 0.872274  0.442821  0.207480
			 0.905862  0.254990  0.338221
			 0.984874  0.084914  0.151042
			 0.992939  0.103690  0.057620
			 0.941983  0.215575  0.257285
			 0.925266  0.378044 -0.031070
			 0.819973  0.512067  0.255796
			 0.680342  0.709262  0.184613
			 0.544796  0.825912 -0.145142
			 0.548692  0.835588 -0.027031
			 0.868140  0.496204 -0.010761
			 0.831372  0.434000 -0.347081
			 0.750196  0.621050  0.226941
			 0.952495 -0.041923 -0.301655
			 0.987109 -0.083437 -0.136582
			 0.979630 -0.104837 -0.171272
			 0.893032  0.240891 -0.380087
			 0.911056  0.169028  0.376041
			 0.792382  0.351870  0.498316
			 0.951678  0.105219 -0.288509
			 0.999143  0.041351  0.002027
			 0.808929  0.001830  0.587903
			 0.239201  0.155238  0.958480
			-0.979641 -0.038595  0.197011
			-0.957296 -0.084818 -0.276387
			-0.406128  0.099725 -0.908358
			 0.619177  0.170148 -0.766596
			 0.657723  0.101959 -0.746327
			 0.993211 -0.028962 -0.112661
			 0.955023  0.010542 -0.296346
			 0.981101 -0.008132  0.193325
			 0.930652 -0.060265  0.360908
			 0.606895  0.009545  0.794725
			 0.469673 -0.059830  0.880811
			-0.439364  0.052686  0.896763
			-0.332264  0.000635  0.943186
			-0.973364 -0.016781  0.228649
			-0.911411  0.035395  0.409973
			-0.903361 -0.030027 -0.427828
			-0.879859  0.090109 -0.466613
			-0.058423  0.069487 -0.995871
			-0.129454  0.076419 -0.988636
			 0.525425  0.037066 -0.850032
			 0.537427  0.032297 -0.842692
			 0.725348  0.013743 -0.688245
			 0.818898  0.006957 -0.573896
			 0.932518 -0.009304 -0.361005
			 0.938634 -0.087884  0.333530
			 0.488334 -0.129456  0.863001
			-0.109388 -0.102396  0.988711
			-0.760028 -0.039507  0.648688
			-0.999868  0.012122  0.010820
			-0.619478  0.050620 -0.783380
			 0.352019  0.040230 -0.935128
			 0.813742  0.041891 -0.579714
		</DataArray>
	</PointData>
	<Points>
		<DataArray type="Float32" NumberOfComponents="3" format="ascii">
			-0.003244  0.022145 -0.007029
			-0.009188  0.021756 -0.003054
			-0.015251  0.017942 -0.003615
			-0.018212  0.012891 -0.007792
			-0.016575  0.009246 -0.013576
			-0.010928  0.009649 -0.017587
			-0.004086  0.014405 -0.017265
			-0.002427  0.019449 -0.012335
			-0.002748  0.022122 -0.006969
			 0.002353  0.023356 -0.002803
			-0.007155  0.022663  0.003832
			-0.017598  0.015852  0.002462
			-0.021310  0.008721 -0.004652
			-0.017751  0.002869 -0.014689
			-0.008703  0.003965 -0.020695
			 0.001233  0.010930 -0.020080
			 0.004971  0.020040 -0.011575
			 0.002739  0.023418 -0.002639
			 0.008170  0.022454  0.001271
			-0.003993  0.021530  0.010593
			-0.018156  0.012355  0.008206
			-0.022899  0.002425 -0.002320
			-0.018077 -0.002902 -0.014250
			-0.005922 -0.000902 -0.022249
			 0.006589  0.004748 -0.020926
			 0.012041  0.017227 -0.009431
			 0.008166  0.022208  0.002045
			 0.011549  0.021347  0.004581
			 0.000434  0.020121  0.014291
			-0.017473  0.010115  0.010857
			-0.022446 -0.000708  0.001880
			-0.017680 -0.007626 -0.011885
			-0.004088 -0.008184 -0.021088
			 0.011399  0.000412 -0.019046
			 0.015519  0.015315 -0.008920
			 0.012084  0.020805  0.005781
			 0.015023  0.015432  0.008562
			 0.004268  0.017597  0.020783
			-0.009264  0.012481  0.017274
			-0.014553  0.005100  0.012266
			-0.018456 -0.005989  0.001841
			-0.014168 -0.010596 -0.006234
			-0.004545 -0.013629 -0.015277
			 0.012713 -0.003616 -0.013975
			 0.020082  0.010297 -0.004429
			 0.015269  0.015820  0.009177
			 0.016555  0.007919  0.010461
			 0.016959  0.011885  0.015338
			 0.007396  0.012197  0.025325
			-0.003283  0.008705  0.026377
			-0.013737  0.001648  0.022501
			-0.016766 -0.004063  0.016965
			-0.012606 -0.009845  0.008658
			-0.009881 -0.016235 -0.002200
			-0.002202 -0.020117 -0.011343
			 0.013524 -0.010481 -0.008362
			 0.021547 -0.004656 -0.007384
			 0.025149  0.000617 -0.001751
			 0.025735  0.003363  0.003644
			 0.024020  0.006003  0.007184
			-0.010938  0.015935 -0.012544
			 0.012182 -0.023823  0.005011
			 0.011030 -0.041944  0.002473
			 0.012750 -0.042884  0.007851
			 0.013496 -0.025435  0.011856
			 0.008526 -0.041976  0.012286
			 0.010080 -0.027862  0.014966
			-0.000761 -0.042723  0.012073
			-0.000955 -0.029565  0.014659
			-0.007797 -0.042698  0.005221
			-0.005025 -0.028850  0.011905
			-0.007637 -0.026900  0.003417
			-0.008240 -0.043255  0.001167
			-0.007076 -0.026718 -0.003651
			-0.000496 -0.041919 -0.008140
			-0.000292 -0.025300 -0.009993
			 0.008762 -0.042400 -0.007335
			 0.011699 -0.023893 -0.006030
			 0.011456 -0.042134 -0.003658
			 0.013812 -0.024251  0.000533
			 0.011026 -0.041941  0.002471
			 0.011295 -0.070937  0.000594
			 0.012629 -0.073147  0.007015
			 0.003747 -0.071300  0.010301
			-0.006409 -0.071249  0.005919
			-0.007978 -0.071089  0.001440
			-0.007103 -0.070953 -0.003238
			-0.001930 -0.069544 -0.008766
			 0.005248 -0.069828 -0.008195
			 0.010276 -0.070448 -0.004992
			 0.011294 -0.070990  0.000586
			 0.009461 -0.096869 -0.002659
			 0.010547 -0.099296  0.005653
			 0.003011 -0.096196  0.009137
			-0.003479 -0.096289  0.009406
			-0.007278 -0.095051  0.005450
			-0.008139 -0.094138 -0.002078
			-0.002702 -0.094297 -0.011240
			 0.004935 -0.096129 -0.010073
			 0.009450 -0.096810 -0.002643
			 0.008569 -0.119485 -0.004240
			 0.009790 -0.116960  0.004989
			 0.004835 -0.117444  0.008255
			-0.003266 -0.116925  0.008734
			-0.006328 -0.117512  0.004643
			-0.008821 -0.117296 -0.003839
			-0.006297 -0.117521 -0.010624
			 0.002875 -0.118829 -0.011929
			-0.005818 -0.020940  0.014888
			-0.008856 -0.013017  0.018095
			-0.008528 -0.020831  0.004821
			-0.009350 -0.016567  0.006621
			-0.007876 -0.022418 -0.003686
			 0.011849 -0.017701 -0.006517
			 0.015308 -0.015891 -0.005226
			 0.018906 -0.009752 -0.005891
			 0.020639 -0.007164 -0.002529
			 0.021890 -0.005532  0.001109
			 0.023147 -0.003132  0.004990
			 0.016395 -0.015339 -0.002319
			 0.017376 -0.014082  0.001727
			 0.016320 -0.002660  0.009930
			 0.017201 -0.003261  0.017416
			 0.013916 -0.014016  0.007850
			 0.013998 -0.016768  0.014428
			 0.006757 -0.005730  0.024424
			-0.007993 -0.006661  0.024288
			 0.007661 -0.018510  0.018617
			-0.000738 -0.019969  0.018286
			 0.000073 -0.282517 -0.042841
			-0.001307 -0.285146 -0.043295
			-0.000876 -0.290486 -0.041449
			 0.002684 -0.293483 -0.036206
			 0.005130 -0.293851 -0.030730
			 0.011529 -0.301300 -0.028188
			-0.002660 -0.283083 -0.043811
			-0.004632 -0.285732 -0.041886
			-0.005840 -0.285337 -0.036744
			-0.004656 -0.285036 -0.031411
			-0.002703 -0.290263 -0.027093
			 0.001644 -0.302885 -0.025455
			-0.000048 -0.275476 -0.040749
			-0.005837 -0.275374 -0.032872
			-0.004980 -0.283163 -0.030496
			-0.004352 -0.286292 -0.025248
			-0.004472 -0.289312 -0.023766
			-0.004438 -0.297099 -0.022931
			-0.000219 -0.270320 -0.033987
			-0.005680 -0.274132 -0.025349
			-0.005405 -0.291137 -0.020941
			-0.003259 -0.288600 -0.015178
			-0.003140 -0.288734 -0.009550
			-0.004918 -0.287426 -0.002675
			-0.008215 -0.286556  0.000746
			-0.000784 -0.276645 -0.021792
			 0.002830 -0.278378 -0.017336
			 0.004227 -0.279963 -0.012833
			 0.001871 -0.279556 -0.004865
			-0.005255 -0.280590 -0.000546
			-0.007604 -0.281241 -0.000560
			 0.009713 -0.278483 -0.024464
			-0.006093 -0.270213 -0.019561
			-0.001314 -0.273361 -0.016955
			 0.000624 -0.274196 -0.011630
			-0.001128 -0.274224 -0.006328
			-0.004515 -0.274949 -0.003621
			-0.008726 -0.273296 -0.001730
			 0.000543 -0.269516 -0.019547
			-0.006970 -0.266334 -0.009127
			 0.015406 -0.284528 -0.025336
			 0.013312 -0.283321 -0.020058
			 0.012064 -0.284744 -0.012793
			 0.010340 -0.283020 -0.008705
			 0.008863 -0.281382 -0.004190
			 0.017580 -0.289385 -0.026864
			 0.015714 -0.288724 -0.018685
			 0.013675 -0.288393 -0.012535
			 0.013172 -0.285872 -0.009064
			 0.013613 -0.285364 -0.005840
			 0.017085 -0.294865 -0.027418
			 0.015569 -0.293575 -0.019386
			 0.013521 -0.292119 -0.012723
			 0.014468 -0.292237 -0.008933
			 0.014833 -0.292261 -0.006123
			 0.011632 -0.299754 -0.020103
			 0.010544 -0.297107 -0.013407
			 0.010647 -0.296786 -0.009133
			 0.009532 -0.298110 -0.004600
			 0.004218 -0.301180 -0.018558
			 0.003966 -0.298370 -0.011211
			 0.003981 -0.298598 -0.007254
			 0.003666 -0.299191 -0.002382
			-0.002499 -0.296840 -0.018021
			-0.000776 -0.295464 -0.010884
			-0.000540 -0.296957 -0.005080
			-0.001149 -0.298908  0.000018
			-0.003687 -0.291230 -0.016841
			-0.002755 -0.291286 -0.009557
			-0.004298 -0.291975 -0.002914
			-0.007010 -0.293095  0.000731
			 0.005384 -0.291532 -0.037754
			 0.007230 -0.291693 -0.030575
			 0.006180 -0.280740 -0.038444
			 0.008076 -0.279409 -0.031089
			 0.009639 -0.278443 -0.024458
			 0.006761 -0.285540 -0.036787
			 0.008795 -0.286054 -0.030469
			 0.006566 -0.290087 -0.035287
			 0.003730 -0.266854 -0.025257
			 0.006736 -0.264837 -0.016813
			 0.006186 -0.262338 -0.012123
			 0.003690 -0.273340 -0.034135
			 0.005615 -0.271728 -0.027749
			-0.007667 -0.260900  0.010428
			-0.011129 -0.261075 -0.000199
			-0.008536 -0.259852 -0.015319
			-0.001495 -0.260297 -0.025350
			-0.010141 -0.279368  0.004475
			-0.010110 -0.273404  0.009054
			-0.009356 -0.265051  0.011089
			-0.005826 -0.290703  0.005216
			-0.005376 -0.291468  0.010361
			-0.005761 -0.286223  0.013935
			-0.005254 -0.279402  0.016580
			-0.004235 -0.270576  0.014945
			-0.000776 -0.297935  0.007316
			-0.001011 -0.294387  0.013980
			 0.001717 -0.290230  0.018066
			 0.000610 -0.286407  0.019544
			-0.000330 -0.281830  0.020771
			 0.002317 -0.297589  0.011059
			 0.007459 -0.295108  0.014537
			 0.010172 -0.289351  0.016043
			 0.008882 -0.280127  0.015309
			 0.009263 -0.283447  0.016698
			 0.005068 -0.299011  0.001932
			 0.009922 -0.297249  0.000014
			 0.013551 -0.292249 -0.002188
			 0.013115 -0.286306 -0.001260
			 0.009440 -0.282017  0.000790
			 0.003432 -0.299874  0.006789
			 0.011076 -0.299271  0.006353
			 0.015577 -0.295345  0.006527
			 0.016858 -0.291095  0.005933
			 0.016818 -0.286690  0.006324
			 0.013095 -0.281182  0.006746
			 0.008211 -0.278995  0.007128
			 0.006782 -0.299695  0.010843
			 0.011682 -0.296932  0.013931
			 0.014112 -0.291093  0.016133
			 0.014688 -0.285734  0.015138
			 0.011296 -0.281280  0.014078
			-0.000979 -0.298563  0.004093
			 0.004632 -0.278044  0.011244
			 0.002939 -0.274501  0.008290
			 0.003082 -0.272393  0.004595
			 0.006112 -0.266775 -0.007410
			 0.006751 -0.271682 -0.006277
			 0.004070 -0.274857  0.001301
			 0.008000 -0.278592 -0.004304
			 0.005370 -0.277938  0.000189
			 0.007513 -0.280087 -0.000029
			 0.005973 -0.278931  0.009821
			 0.006291 -0.279137  0.003778
			 0.004212 -0.277520  0.005751
			 0.006441 -0.280080 -0.008673
			 0.006099 -0.280151 -0.017543
			 0.005123 -0.272035 -0.009627
			 0.004907 -0.271847 -0.014437
			 0.005456 -0.266769 -0.012823
			 0.006000 -0.261020 -0.015902
			 0.005545 -0.262529 -0.007731
			 0.002280 -0.262817  0.000811
			 0.003717 -0.246915 -0.014849
			 0.005378 -0.245431 -0.008828
			 0.001550 -0.245784 -0.001498
			-0.009665 -0.244816  0.005731
			-0.012037 -0.242822 -0.001386
			-0.011241 -0.242399 -0.011966
			-0.003615 -0.247872 -0.021303
			 0.000268 -0.246665 -0.017915
			 0.003721 -0.246949 -0.014852
			 0.005380 -0.192929 -0.010625
			 0.003402 -0.226637 -0.013316
			 0.005137 -0.226970 -0.007943
			 0.005411 -0.194794 -0.004278
			-0.000305 -0.225814 -0.000853
			 0.000466 -0.193890  0.000268
			-0.010525 -0.226541  0.003325
			-0.007298 -0.193380  0.001301
			-0.013335 -0.226722 -0.003529
			-0.013444 -0.193071 -0.004460
			-0.012748 -0.227827 -0.012980
			-0.012463 -0.192921 -0.012504
			-0.005256 -0.227419 -0.018903
			-0.002420 -0.192819 -0.017128
			-0.001158 -0.228425 -0.017326
			 0.002633 -0.193354 -0.014930
			 0.003408 -0.226693 -0.013317
			 0.005355 -0.193003 -0.010619
			 0.007425 -0.150734 -0.007848
			 0.007986 -0.152205 -0.000563
			 0.004291 -0.151938  0.003414
			 0.000289 -0.151330  0.005056
			-0.005137 -0.148847  0.003371
			-0.010171 -0.147607 -0.003716
			-0.008081 -0.148241 -0.012067
			 0.001852 -0.148773 -0.014361
			 0.008472 -0.119500 -0.004121
		</DataArray>
	</Points>
			<Polys>
				<DataArray type="Int32" Name="connectivity" format="ascii">
					10 9 0 
					1 10 0 
					11 10 1 
					2 11 1 
					12 11 2 
					3 12 2 
					13 12 3 
					4 13 3 
					14 13 4 
					5 14 4 
					15 14 5 
					6 15 5 
					16 15 6 
					7 16 6 
					17 16 7 
					8 17 7 
					19 18 9 
					10 19 9 
					20 19 10 
					11 20 10 
					21 20 11 
					12 21 11 
					22 21 12 
					13 22 12 
					23 22 13 
					14 23 13 
					24 23 14 
					15 24 14 
					25 24 15 
					16 25 15 
					26 25 16 
					17 26 16 
					28 27 18 
					19 28 18 
					29 28 19 
					20 29 19 
					30 29 20 
					21 30 20 
					31 30 21 
					22 31 21 
					32 31 22 
					23 32 22 
					33 32 23 
					24 33 23 
					34 33 24 
					25 34 24 
					35 34 25 
					26 35 25 
					28 36 27 
					28 37 36 
					29 37 28 
					29 38 37 
					30 38 29 
					30 39 38 
					30 40 39 
					31 40 30 
					31 41 40 
					32 41 31 
					32 42 41 
					33 42 32 
					33 43 42 
					34 43 33 
					34 44 43 
					35 44 34 
					35 45 44 
					36 47 46 
					37 47 36 
					37 48 47 
					38 48 37 
					38 49 48 
					38 50 49 
					39 50 38 
					39 51 50 
					40 51 39 
					40 52 51 
					40 53 52 
					41 53 40 
					41 54 53 
					42 54 41 
					42 55 54 
					42 56 55 
					43 56 42 
					43 57 56 
					44 57 43 
					44 58 57 
					44 59 58 
					45 59 44 
					45 46 59 
					7 60 0 
					6 60 7 
					5 60 6 
					4 60 5 
					3 60 4 
					2 60 3 
					1 60 2 
					0 60 1 
					63 62 61 
					64 63 61 
					65 63 64 
					66 65 64 
					67 65 66 
					68 67 66 
					69 67 68 
					70 69 68 
					71 69 70 
					72 69 71 
					73 72 71 
					74 72 73 
					75 74 73 
					76 74 75 
					77 76 75 
					78 76 77 
					79 78 77 
					80 78 79 
					61 80 79 
					82 81 62 
					63 82 62 
					83 82 63 
					65 83 63 
					84 83 65 
					67 84 65 
					85 84 67 
					69 85 67 
					86 85 69 
					72 86 69 
					87 86 72 
					74 87 72 
					88 87 74 
					76 88 74 
					89 88 76 
					78 89 76 
					90 89 78 
					80 90 78 
					92 91 81 
					82 92 81 
					93 92 82 
					83 93 82 
					94 93 83 
					84 94 83 
					85 94 84 
					95 94 85 
					86 95 85 
					96 95 86 
					87 96 86 
					97 96 87 
					88 97 87 
					98 97 88 
					89 98 88 
					99 98 89 
					90 99 89 
					101 100 91 
					92 101 91 
					102 101 92 
					93 102 92 
					103 102 93 
					94 103 93 
					104 103 94 
					95 104 94 
					105 104 95 
					96 105 95 
					106 105 96 
					97 106 96 
					107 106 97 
					98 107 97 
					100 107 98 
					99 100 98 
					110 71 70 
					108 110 70 
					111 110 108 
					109 111 108 
					52 111 109 
					51 52 109 
					112 73 71 
					110 112 71 
					111 112 110 
					53 112 111 
					52 53 111 
					112 75 73 
					54 75 112 
					53 54 112 
					75 113 77 
					54 113 75 
					54 55 113 
					113 114 77 
					113 115 114 
					55 115 113 
					55 56 115 
					116 115 56 
					57 116 56 
					117 116 57 
					58 117 57 
					118 117 58 
					59 118 58 
					119 114 115 
					116 119 115 
					117 119 116 
					120 119 117 
					118 120 117 
					119 77 114 
					79 77 119 
					120 79 119 
					121 118 59 
					46 121 59 
					122 121 46 
					47 122 46 
					123 120 118 
					121 123 118 
					124 123 121 
					122 124 121 
					61 79 120 
					123 61 120 
					64 61 123 
					124 64 123 
					125 122 47 
					48 125 47 
					49 125 48 
					126 125 49 
					50 126 49 
					109 126 50 
					51 109 50 
					127 124 122 
					125 127 122 
					128 127 125 
					126 128 125 
					108 128 126 
					109 108 126 
					66 64 124 
					127 66 124 
					68 66 127 
					128 68 127 
					70 68 128 
					108 70 128 
					136 135 129 
					130 136 129 
					137 136 130 
					131 137 130 
					138 137 131 
					132 138 131 
					139 138 132 
					133 139 132 
					140 139 133 
					134 140 133 
					142 141 135 
					136 142 135 
					143 142 136 
					137 143 136 
					144 143 137 
					138 144 137 
					145 144 138 
					139 145 138 
					146 145 139 
					140 146 139 
					142 147 141 
					148 147 142 
					143 148 142 
					149 148 143 
					144 149 143 
					145 149 144 
					146 149 145 
					149 154 148 
					150 154 149 
					150 155 154 
					151 155 150 
					151 156 155 
					152 156 151 
					152 157 156 
					152 158 157 
					153 158 152 
					153 159 158 
					162 161 148 
					154 162 148 
					163 162 154 
					155 163 154 
					156 163 155 
					164 163 156 
					157 164 156 
					165 164 157 
					158 165 157 
					166 165 158 
					159 166 158 
					162 168 161 
					163 168 162 
					164 168 163 
					165 168 164 
					166 168 165 
					175 174 169 
					170 175 169 
					176 175 170 
					171 176 170 
					177 176 171 
					172 177 171 
					178 177 172 
					173 178 172 
					180 179 174 
					175 180 174 
					181 180 175 
					176 181 175 
					182 181 176 
					177 182 176 
					183 182 177 
					178 183 177 
					184 134 179 
					180 184 179 
					185 184 180 
					181 185 180 
					186 185 181 
					182 186 181 
					187 186 182 
					183 187 182 
					188 140 134 
					184 188 134 
					189 188 184 
					185 189 184 
					190 189 185 
					186 190 185 
					191 190 186 
					187 191 186 
					192 146 140 
					188 192 140 
					193 192 188 
					189 193 188 
					194 193 189 
					190 194 189 
					195 194 190 
					191 195 190 
					196 149 146 
					192 196 146 
					197 196 192 
					193 197 192 
					198 197 193 
					194 198 193 
					199 198 194 
					195 199 194 
					196 150 149 
					151 150 196 
					197 151 196 
					152 151 197 
					198 152 197 
					153 152 198 
					199 153 198 
					200 132 131 
					133 132 200 
					201 133 200 
					134 133 201 
					179 134 201 
					205 130 129 
					202 205 129 
					206 205 202 
					203 206 202 
					169 206 203 
					204 169 203 
					207 131 130 
					205 207 130 
					201 207 205 
					206 201 205 
					174 201 206 
					169 174 206 
					207 200 131 
					201 200 207 
					174 179 201 
					211 141 147 
					208 211 147 
					212 211 208 
					209 212 208 
					167 212 209 
					210 167 209 
					202 129 141 
					211 202 141 
					203 202 211 
					212 203 211 
					160 203 212 
					167 160 212 
					215 168 214 
					215 161 168 
					215 148 161 
					216 148 215 
					216 147 148 
					214 168 217 
					218 214 217 
					219 214 218 
					213 214 219 
					217 153 199 
					220 217 199 
					221 217 220 
					218 217 221 
					222 218 221 
					219 218 222 
					223 219 222 
					213 219 223 
					224 213 223 
					220 199 195 
					225 220 195 
					221 220 225 
					226 221 225 
					227 221 226 
					222 221 227 
					228 222 227 
					223 222 228 
					229 223 228 
					224 223 229 
					230 226 225 
					227 226 230 
					231 227 230 
					232 227 231 
					228 227 232 
					234 228 232 
					229 228 234 
					233 229 234 
					224 229 233 
					235 241 240 
					236 241 235 
					236 242 241 
					237 242 236 
					237 243 242 
					238 243 237 
					238 244 243 
					238 245 244 
					239 245 238 
					239 246 245 
					241 247 240 
					248 247 241 
					242 248 241 
					249 248 242 
					243 249 242 
					250 249 243 
					244 250 243 
					245 250 244 
					251 250 245 
					246 251 245 
					195 252 225 
					235 225 195 
					240 225 235 
					230 225 240 
					247 230 240 
					231 230 247 
					248 231 247 
					232 231 248 
					249 232 248 
					250 232 249 
					234 232 250 
					251 234 250 
					233 234 251 
					253 224 233 
					254 224 253 
					255 224 254 
					258 257 256 
					255 258 256 
					260 259 257 
					258 260 257 
					260 261 259 
					239 173 259 
					261 239 259 
					238 178 173 
					239 238 173 
					237 183 178 
					238 237 178 
					236 187 183 
					237 236 183 
					235 191 187 
					236 235 187 
					235 195 191 
					246 233 251 
					246 262 233 
					246 263 262 
					239 263 246 
					239 261 263 
					264 253 233 
					262 264 233 
					263 264 262 
					260 264 263 
					261 260 263 
					264 254 253 
					258 254 264 