<?xml version="1.0"?>
<VTKFile type="PolyData" version="0.1" byte_order="LittleEndian" compressor="vtkZLibDataCompressor">
	<PolyData>
		<Piece NumberOfPoints="1459" NumberOfVerts="0" NumberOfLines="0" NumberOfStrips="0" NumberOfPolys="1796">
		<PointData Normals="Normals">
		<DataArray type="Float32" Name="Normals" NumberOfComponents="3" format="ascii">
			 0.843669 -0.186999  0.503243
			 0.904016 -0.177540  0.388889
			 0.991304 -0.123779 -0.044660
			 0.898310 -0.075912  0.432754
			 0.866379 -0.386548  0.316178
			 0.845537 -0.434418 -0.310401
			 0.651911 -0.236160  0.720583
			 0.672080 -0.537316  0.509508
			 0.906704 -0.318858  0.276074
			 0.920960 -0.387431  0.041583
			 0.759037 -0.279967 -0.587776
			 0.880431 -0.261562 -0.395508
			 0.965748 -0.209288 -0.153391
			 0.857361 -0.467929 -0.214418
			 0.745719 -0.650378 -0.144605
			 0.971243 -0.098082 -0.216949
			 0.790523 -0.216881 -0.572745
			 0.704193 -0.646516  0.293480
			 0.850723 -0.522539 -0.056769
			 0.991894 -0.028322 -0.123875
			 0.993114  0.093749 -0.070255
			 0.999055 -0.043116  0.005561
			 0.959670 -0.279238  0.032557
			 0.676361  0.734474  0.055523
			 0.301062  0.951765  0.059195
			 0.652069  0.458824 -0.603561
			 0.703718  0.710024 -0.025424
			 0.979265 -0.171397 -0.107996
			 0.896542 -0.131509 -0.422987
			 0.136269  0.852353 -0.504901
			 0.780275 -0.509504  0.362735
			 0.891776 -0.363215 -0.269836
			 0.686343 -0.384052  0.617606
			 0.666187  0.415827  0.619098
			 0.785547 -0.544391 -0.294202
			 0.979789 -0.169611 -0.106046
			 0.995013 -0.094752 -0.031149
			 0.875515 -0.468361  0.118794
			 0.778383 -0.562966  0.277829
			 0.744000 -0.609580  0.273634
			 0.950347 -0.168389  0.261699
			 0.977778  0.206479 -0.036295
			 0.983668  0.165080 -0.071737
			 0.978835  0.203200  0.024343
			 0.978783  0.070879 -0.192253
			-0.544169  0.784925  0.296263
			-0.273781  0.949766 -0.151622
			-0.860524  0.361304  0.359108
			-0.686938  0.701154 -0.191050
			-0.869133  0.373177  0.324572
			-0.295661  0.926899  0.231177
			 0.934200 -0.227500  0.274798
			 0.948367 -0.224848  0.223704
			 0.879859  0.394255  0.265350
			-0.753283  0.587484  0.295680
			-0.821989  0.534650  0.196173
			-0.710593  0.519161  0.474899
			 0.829435 -0.188957  0.525674
			 0.981514 -0.027973  0.189338
			 0.855547 -0.463387  0.230894
			 0.885788 -0.180355  0.427611
			 0.988186 -0.153136 -0.006096
			 0.194882  0.773239  0.603426
			 0.889646 -0.435370 -0.137777
			 0.983563  0.093146  0.154686
			 0.923641 -0.375206 -0.078155
			 0.968496 -0.220745 -0.115271
			 0.779771 -0.605019 -0.160963
			 0.891894 -0.352182 -0.283714
			 0.934382 -0.349720 -0.068016
			 0.966245 -0.210090 -0.149108
			 0.983951  0.103943 -0.145038
			 0.984610  0.174591 -0.007849
			 0.974135  0.183039  0.132505
			 0.961338  0.051585 -0.270498
			 0.958313  0.120631  0.259006
			 0.885603  0.060120 -0.460536
			 0.916384  0.039764 -0.398321
			-0.821573  0.569796 -0.018704
			-0.699823  0.636049  0.325098
			-0.826411  0.542756 -0.149865
			-0.733832  0.667660 -0.125386
			-0.759222  0.570894 -0.312510
			 0.958504 -0.265091 -0.104865
			 0.984796  0.080873 -0.153743
			 0.135046  0.990253  0.034086
			-0.736950  0.631607  0.240785
			-0.686744  0.436951  0.580911
			-0.771313  0.439375  0.460463
			-0.704477  0.699146 -0.122092
			-0.748469  0.632920 -0.198007
			-0.533427  0.844909 -0.039795
			-0.630158  0.774188  0.059447
			-0.811092  0.554827  0.185192
			 0.505295  0.660300 -0.555590
			 0.991490 -0.088612  0.095367
			 0.785475 -0.603344 -0.137863
			 0.796679 -0.543069 -0.265290
			 0.975736 -0.200345 -0.088328
			 0.960173 -0.206441 -0.188280
			 0.908688 -0.232677 -0.346623
			 0.919411  0.338723 -0.199877
			-0.693878  0.502439 -0.515838
			 0.957713  0.069674  0.279161
			 0.947075  0.063280  0.314712
			 0.936141 -0.349533  0.038286
			 0.923643 -0.375199  0.078156
			 0.902833 -0.358042  0.238113
			 0.907034 -0.138830 -0.397513
			 0.846573 -0.088585 -0.524850
			 0.854744 -0.447198 -0.263489
			 0.934676 -0.220558 -0.278811
			 0.757837 -0.230490 -0.610375
			 0.977424  0.051762 -0.204848
			 0.998701 -0.050948 -0.000819
			 0.944811  0.071582 -0.319701
			 0.976778 -0.043682  0.209753
			 0.945915  0.064465  0.317945
			 0.877775  0.084828 -0.471504
			 0.940441  0.072320  0.332175
			 0.872471  0.091573 -0.480009
			 0.869196 -0.008064 -0.494401
			 0.866709  0.023285 -0.498271
			 0.926883 -0.198470 -0.318588
			 0.862639 -0.258535 -0.434757
			-0.780678  0.607710 -0.145706
			-0.740290  0.446986  0.502170
			-0.721219  0.634432  0.278098
			-0.572743  0.706272  0.416107
			-0.779339  0.483254 -0.398869
			-0.747710  0.412285 -0.520530
			-0.606781  0.654559 -0.450965
			-0.578512  0.815585  0.012070
			-0.748491  0.658506  0.078297
			-0.760885  0.425951 -0.489509
			-0.714904  0.383896 -0.584411
			-0.789126  0.527159 -0.315252
			-0.752343  0.637158  0.167364
			 0.786826  0.046845 -0.615395
			-0.671323  0.691296  0.267276
			-0.720487  0.580149  0.379902
			-0.859743  0.469592  0.200811
			-0.689383  0.599026  0.407331
			-0.730556  0.680190  0.060243
			-0.715577  0.685616  0.133720
			-0.729800  0.498715  0.467627
			-0.323199  0.735266  0.595757
			 0.925403  0.358378 -0.123262
			-0.696870  0.475619  0.536804
			 0.783324 -0.587445  0.203255
			 0.963139 -0.205243  0.173893
			 0.979185 -0.179497  0.094752
			 0.964755 -0.221658  0.141828
			 0.969172  0.047952  0.241672
			 0.162545  0.986471  0.021309
			-0.830994  0.523970 -0.186826
			-0.615898  0.716997 -0.326474
			 0.528394  0.845636  0.075494
			 0.934089  0.071152  0.349880
			 0.944607  0.054601  0.323631
			 0.836902 -0.202761  0.508413
			 0.873670 -0.093741  0.477402
			 0.910273 -0.069706  0.408098
			 0.935842 -0.008034  0.352328
			 0.689088 -0.448562  0.569166
			 0.913407 -0.124397 -0.387574
			 0.921954 -0.088713 -0.377003
			 0.896405 -0.374887 -0.236468
			 0.980083 -0.159054 -0.118907
			 0.874740 -0.475104 -0.095427
			 0.985350 -0.167506 -0.032061
			 0.980618 -0.139847 -0.137230
			 0.962854 -0.270018 -0.001310
			 0.946965 -0.098939 -0.305726
			 0.956312 -0.257909  0.137658
			 0.863098 -0.050785 -0.502476
			 0.944879 -0.105709  0.309884
			 0.902410 -0.043606  0.428666
			 0.803338 -0.057366 -0.592754
			 0.870718 -0.159114  0.465331
			 0.701002  0.422281 -0.574696
			 0.814085  0.002620 -0.580740
			 0.789153  0.091627 -0.607323
			 0.856232 -0.352099 -0.378013
			 0.772781 -0.147947 -0.617188
			 0.754523 -0.565807 -0.332502
			 0.778226 -0.627057 -0.034116
			-0.784765  0.615911 -0.069271
			-0.780110  0.586720 -0.217228
			-0.726489  0.683811  0.067950
			-0.593240  0.689874 -0.414898
			-0.801889  0.555437 -0.220145
			-0.685459  0.607158 -0.401877
			-0.733998  0.657050 -0.171849
			-0.602737  0.594608  0.532118
			-0.756867  0.609822  0.235094
			-0.515751  0.604713  0.606897
			-0.810458  0.585450  0.020157
			-0.631499  0.395098  0.667163
			-0.672260  0.367395  0.642718
			-0.535154  0.517729  0.667508
			 0.211397  0.713063  0.668470
			 0.986250  0.068068  0.150592
			 0.881093  0.427281 -0.202748
			-0.615526  0.532563  0.580951
			 0.881199 -0.150296  0.448218
			 0.830684 -0.088921  0.549597
			 0.751416 -0.168387  0.637981
			 0.777555  0.048988  0.626904
			-0.676176  0.428366 -0.599407
			-0.718452  0.518454 -0.463715
			-0.296173  0.595269 -0.746951
			 0.864930  0.458003 -0.205256
			 0.782710  0.059053  0.619579
			 0.691774  0.209689  0.690999
			 0.875137 -0.246604  0.416319
			 0.742209 -0.118753  0.659564
			 0.652025 -0.503523  0.566859
			 0.747085 -0.548502  0.375512
			 0.781869 -0.618507  0.078299
			 0.773014 -0.204651  0.600473
			 0.900478 -0.151039  0.407832
			 0.780038 -0.444444  0.440466
			 0.884583 -0.112675  0.452568
			 0.969840 -0.151458  0.190972
			 0.945984 -0.197156  0.257379
			 0.959290 -0.103024 -0.262963
			 0.760068 -0.269402 -0.591371
			 0.682320  0.149350 -0.715636
			 0.813247 -0.581816 -0.010922
			 0.860165 -0.510008 -0.002962
			 0.764792 -0.603098 -0.226641
			 0.864835 -0.501392  0.025809
			 0.729989 -0.428620 -0.532354
			 0.816929 -0.521051  0.247251
			 0.672215 -0.309153 -0.672719
			 0.732744 -0.426073  0.530611
			 0.719885 -0.340413  0.604884
			 0.630834 -0.329367 -0.702542
			 0.663268 -0.315962  0.678412
			 0.705414  0.307126 -0.638800
			 0.595367  0.240560 -0.766596
			 0.618166 -0.386055 -0.684713
			 0.673669 -0.196748 -0.712362
			 0.715501 -0.162843 -0.679368
			 0.736756 -0.613951 -0.283293
			 0.523059 -0.339128 -0.781922
			 0.586322 -0.363030 -0.724180
			-0.781197  0.615925 -0.101817
			-0.694873  0.593896 -0.405510
			-0.603767  0.523606 -0.601084
			-0.823843  0.309528  0.474841
			-0.916247  0.331601  0.224793
			-0.506351  0.559939  0.655802
			-0.720179  0.289256  0.630613
			-0.946175  0.323581  0.006875
			-0.926414  0.309211 -0.214816
			-0.746713  0.470869  0.469790
			-0.785820  0.424755  0.449522
			-0.576110  0.813465  0.079819
			-0.643616  0.548638  0.533624
			 0.461166  0.877011 -0.134828
			 0.003083  0.919352 -0.393423
			 0.946239  0.010051 -0.323313
			 0.588354  0.377521 -0.715065
			 0.869940 -0.044186  0.491175
			 0.985059 -0.132415  0.110111
			-0.673314  0.513097 -0.532334
			-0.639908  0.356242 -0.680889
			-0.632881  0.387204 -0.670474
			-0.516718  0.470527 -0.715267
			 0.187374  0.678741 -0.710072
			 0.983071  0.109670 -0.146778
			 0.863638  0.459515  0.207302
			 0.639778 -0.442044  0.628714
			 0.437036  0.059777  0.897456
			 0.709079 -0.336763  0.619515
			 0.611349  0.091493  0.786054
			 0.560097 -0.355997  0.748036
			 0.753757 -0.609230  0.246351
			 0.628348 -0.168067  0.759561
			 0.755054 -0.343484  0.558491
			 0.580592 -0.307275  0.753986
			 0.991261 -0.121308 -0.051831
			 0.933623 -0.196028  0.299869
			 0.651498  0.119037  0.749253
			 0.907899 -0.291312 -0.301424
			 0.378011 -0.102343 -0.920127
			 0.699131  0.064829 -0.712048
			 0.641370 -0.045883 -0.765859
			 0.959256 -0.059662 -0.276167
			 0.446177 -0.894940 -0.002799
			 0.540362 -0.841429 -0.002359
			 0.359623 -0.922663 -0.139154
			 0.543191 -0.839261  0.024168
			 0.409503 -0.799967 -0.438589
			 0.468091 -0.866139  0.175197
			 0.417237 -0.665433 -0.618960
			 0.379308 -0.824572  0.419769
			 0.336268 -0.665219 -0.666639
			 0.388002 -0.696877  0.603172
			 0.397289 -0.604525  0.690443
			 0.219505 -0.708917 -0.670265
			 0.322806 -0.620041  0.715085
			 0.862795  0.068053 -0.500952
			 0.818645 -0.038876 -0.572983
			 0.696733 -0.226524 -0.680624
			 0.650692 -0.276735 -0.707119
			 0.702558  0.032395 -0.710889
			 0.650304 -0.349808 -0.674344
			 0.556538 -0.172611 -0.812694
			 0.497388 -0.498542 -0.709972
			 0.868484 -0.225654 -0.441380
			 0.094416 -0.780615 -0.617840
			-0.841445  0.286965 -0.457845
			-0.755620  0.260372 -0.601037
			-0.636215  0.533231 -0.557580
			-0.938124 -0.111000  0.328028
			-0.976309 -0.178927  0.121679
			-0.859024 -0.042825  0.510142
			-0.969421 -0.245174  0.010584
			-0.458782  0.593378  0.661379
			-0.652684  0.369794  0.661253
			-0.389193  0.594216  0.703872
			-0.723001  0.042767  0.689522
			-0.965125 -0.238703 -0.107487
			-0.935343 -0.172920 -0.308596
			 0.284037  0.888125  0.361327
			-0.302381  0.243245  0.921628
			 0.223976  0.936544  0.269666
			 0.043888  0.779159 -0.625288
			 0.581561  0.050886 -0.811909
			 0.792151 -0.023802 -0.609861
			 0.962444 -0.202881 -0.180394
			-0.622657  0.616331 -0.482114
			-0.739581  0.457706 -0.493482
			-0.742009  0.417806 -0.524271
			-0.586026  0.788912 -0.184908
			 0.013849  0.945915  0.324118
			 0.522035  0.852681 -0.020358
			 0.948784  0.028939  0.314596
			 0.588341  0.377529  0.715071
			 0.621526 -0.432785  0.652995
			 0.819300  0.073525  0.568632
			 0.730790 -0.177424  0.659141
			 0.826398  0.290885  0.482132
			 0.616336 -0.476178  0.627204
			 0.535979 -0.298269  0.789786
			 0.653686 -0.185208  0.733753
			 0.696583  0.088769  0.711964
			 0.872368 -0.230684  0.430999
			 0.585312 -0.363334  0.724844
			 0.212746 -0.701090  0.680597
			 0.902021 -0.292466  0.317523
			 0.381297 -0.103276  0.918666
			 0.583628  0.027516  0.811555
			 0.947749 -0.027373  0.317840
			 0.946956 -0.319912 -0.030491
			 0.695804 -0.220110 -0.683673
			 0.720375 -0.171940 -0.671934
			 0.749901 -0.235097 -0.618367
			 0.441274 -0.894340 -0.073712
			 0.227861 -0.973686 -0.003974
			 0.339554 -0.924898 -0.171073
			 0.221798 -0.973744  0.051270
			 0.094612 -0.964786 -0.245430
			 0.414808 -0.880941  0.227765
			 0.000114 -0.942357 -0.334608
			 0.281915 -0.891430  0.354790
			-0.143804 -0.922615 -0.357915
			 0.031379 -0.930042  0.366111
			-0.213280 -0.875988 -0.432615
			-0.074907 -0.901319  0.426629
			-0.196446 -0.886914  0.418082
			-0.270376 -0.896205 -0.351730
			-0.202804 -0.876965  0.435664
			 0.795231 -0.174167 -0.580753
			 0.796569 -0.156875 -0.583839
			 0.632574 -0.329827 -0.700760
			 0.729041 -0.172141 -0.662470
			 0.336627 -0.620405 -0.708365
			 0.689928  0.054612 -0.721815
			 0.567872 -0.011561 -0.823036
			 0.348936  0.086679 -0.933129
			 0.674436  0.126777 -0.727368
			 0.583348 -0.136152 -0.800729
			-0.017190 -0.792315 -0.609870
			-0.398495 -0.895183 -0.199622
			-0.871605 -0.120004 -0.475294
			-0.775984 -0.061341 -0.627763
			-0.703119  0.319292 -0.635355
			-0.474961  0.597046 -0.646489
			-0.418112  0.596638 -0.684986
			-0.799505 -0.511854  0.314319
			-0.793760 -0.598688  0.107318
			-0.747710 -0.419413  0.514803
			-0.742046 -0.668610  0.048255
			-0.726772 -0.333771  0.600333
			-0.775524 -0.628336 -0.061285
			-0.431950  0.473222  0.767776
			-0.562344  0.384578  0.732031
			-0.304796  0.581395  0.754374
			-0.230935  0.479953  0.846353
			-0.583096  0.076142  0.808828
			-0.313876  0.332161  0.889467
			-0.726875 -0.310750  0.612444
			-0.786599 -0.559998 -0.260124
			-0.765253 -0.489651 -0.417886
			-0.185428  0.370969  0.909944
			 0.221824  0.940779  0.256378
			 0.099651  0.930342  0.352893
			-0.320696 -0.009737  0.947132
			 0.707310  0.646438  0.286062
			 0.048422  0.793663  0.606428
			 0.998792  0.044585 -0.020653
			-0.281741  0.228548 -0.931873
			 0.296037  0.861767 -0.411971
			 0.220377  0.934394 -0.279895
			 0.041633  0.787139  0.615369
			 0.594549  0.081401  0.799928
			 0.784969 -0.024803  0.619038
			 0.663941 -0.264087  0.699600
			 0.818799 -0.090033  0.566977
			 0.678369  0.002522  0.734717
			 0.840064  0.039036  0.541081
			 0.557020 -0.041329  0.829470
			 0.689723 -0.190175  0.698653
			 0.716839 -0.235063  0.656420
			 0.378283  0.071613  0.922916
			 0.674436  0.126777  0.727368
			 0.590858 -0.107883  0.799530
			 0.496553 -0.410639  0.764729
			 0.718324 -0.182576  0.671325
			 0.085814 -0.715825  0.692986
			-0.287641 -0.876031  0.387083
			 0.954381 -0.291557  0.064428
			 0.746275 -0.207533  0.632458
			 0.770319  0.179588 -0.611847
			 0.124710  0.102050 -0.986931
			 0.040448 -0.003399 -0.999176
			 0.057005  0.354316 -0.933387
			-0.054000 -0.998534  0.003776
			-0.224968 -0.973385  0.043714
			-0.157979 -0.986894  0.032913
			-0.284257 -0.958681  0.011342
			-0.374085 -0.917032  0.138250
			-0.129426 -0.989544  0.063657
			-0.495885 -0.848765  0.183565
			-0.233221 -0.970940  0.053690
			-0.615211 -0.770032  0.169015
			-0.466138 -0.880350 -0.087743
			-0.602731 -0.796790  0.042914
			-0.560271 -0.813432 -0.156283
			-0.545595 -0.828292  0.127511
			-0.576740 -0.794358 -0.190699
			-0.512352 -0.856259 -0.065695
			-0.597453 -0.752696  0.276584
			-0.559284 -0.824636 -0.084716
			 0.684979 -0.165605 -0.709492
			 0.707643 -0.037757 -0.705560
			 0.512451 -0.394530 -0.762719
			 0.675892 -0.085919 -0.731976
			 0.195343 -0.645147 -0.738666
			-0.095689 -0.773603 -0.626404
			 0.781783  0.250611 -0.570972
			 0.590450  0.004245 -0.807063
			 0.766743 -0.161290 -0.621362
			 0.525152  0.337719 -0.781128
			 0.471705  0.338328 -0.814266
			 0.490990  0.140839 -0.859706
			 0.568603  0.145110 -0.809712
			 0.721773  0.013864 -0.691991
			 0.430281  0.089327 -0.898264
			-0.421124 -0.863833 -0.276491
			-0.614918 -0.752571  0.235611
			-0.750479 -0.378373 -0.541864
			-0.694441 -0.317191 -0.645864
			-0.629520  0.011979 -0.776892
			-0.590329  0.354015 -0.725386
			-0.404255  0.510431 -0.758972
			-0.302590  0.462897 -0.833166
			-0.332408  0.545865 -0.769114
			-0.335410  0.309533 -0.889769
			-0.392292  0.215395  0.894266
			-0.401363  0.151109  0.903368
			-0.263308  0.425390  0.865859
			-0.376241  0.245457  0.893417
			-0.106856  0.323716  0.940101
			-0.544719 -0.090133  0.833761
			-0.516852  0.337420  0.786773
			-0.697798 -0.384099  0.604604
			-0.812470  0.227666  0.536713
			-0.442556  0.868533  0.223147
			-0.158976  0.981381  0.107786
			-0.248023  0.968317 -0.029094
			 0.527033  0.751180 -0.397448
			-0.313657  0.007158 -0.949510
			-0.185428  0.370969 -0.909944
			 0.226237  0.943223 -0.243203
			 0.103265  0.934164 -0.341574
			 0.736390  0.617865 -0.275630
			 0.048422  0.793663 -0.606428
			 0.997673  0.042342  0.053436
			 0.680427 -0.156561  0.715897
			 0.692033 -0.091547  0.716038
			 0.704667 -0.116489  0.699911
			 0.620757 -0.026340  0.783561
			 0.666272  0.185761  0.722201
			 0.736539 -0.110063  0.667380
			 0.605260 -0.251785  0.755158
			 0.334318  0.142364  0.931646
			 0.484963  0.284435  0.826987
			 0.394383  0.041080  0.918027
			 0.343684 -0.477147  0.808834
			 0.127723  0.107132  0.986007
			 0.556301  0.181942  0.810819
			 0.725666  0.038827  0.686951
			 0.334813  0.016810  0.942135
			-0.016501 -0.704886  0.709129
			 0.013405  0.041390  0.999053
			-0.437822 -0.864599  0.246536
			-0.639018 -0.724541 -0.258255
			 0.760186  0.155129  0.630914
			 0.035463  0.377727  0.925238
			 0.504182  0.399875 -0.765441
			 0.046477  0.983850 -0.172857
			-0.663108 -0.474451  0.578951
			-0.642868 -0.355544 -0.678460
			-0.665762 -0.497888  0.555759
			-0.655795 -0.441539 -0.612353
			-0.678088 -0.480767 -0.555931
			-0.655726 -0.496046  0.569177
			-0.673215 -0.479131 -0.563218
			 0.600671 -0.104674 -0.792615
			 0.624397 -0.143489 -0.767814
			 0.424747 -0.369774 -0.826352
			 0.128248 -0.639775 -0.757786
			-0.110759 -0.793595 -0.598280
			-0.360161 -0.881398 -0.305649
			 0.744256  0.338799 -0.575585
			 0.458023  0.419532 -0.783714
			 0.769694 -0.104416 -0.629816
			 0.319607  0.296512 -0.899962
			 0.464798  0.087835 -0.881049
			 0.724806  0.181218 -0.664693
			 0.583426 -0.289913 -0.758660
			 0.699140  0.501546 -0.509564
			 0.105366  0.400862 -0.910059
			 0.900857 -0.056733 -0.430393
			 0.880988  0.422456 -0.213053
			 0.444076 -0.005535 -0.895972
			 0.322517  0.069436 -0.944013
			-0.581695 -0.789391  0.196194
			-0.632030 -0.458889  0.624467
			-0.563253  0.074985 -0.822875
			-0.414860  0.260613 -0.871764
			-0.418654  0.172925 -0.891530
			-0.324693  0.296500 -0.898144
			-0.254443  0.454478 -0.853644
			-0.135539  0.371441 -0.918510
			-0.379107  0.272079 -0.884449
			-0.701209  0.206321 -0.682449
			-0.291936  0.203041  0.934638
			-0.421121 -0.037410  0.906232
			-0.461430  0.241752  0.853603
			-0.277305  0.322645  0.904987
			-0.569848 -0.300055  0.765010
			-0.256338  0.143135  0.955931
			-0.414163  0.226414  0.881593
			-0.193668 -0.052197  0.979678
			-0.689029  0.315430  0.652490
			-0.207680  0.866654  0.453630
			-0.442920  0.871450 -0.210704
			-0.169686  0.985427  0.011873
			-0.255531  0.959595  0.117822
			 0.547177  0.722582  0.422461
			 0.714807 -0.102560  0.691760
			 0.606754 -0.091836  0.789567
			 0.477270 -0.299112  0.826284
			 0.518040  0.367337  0.772462
			 0.634496  0.313706  0.706402
			 0.463741  0.108336  0.879323
			 0.330876  0.255124  0.908533
			 0.707007  0.286086  0.646757
			 0.688467 -0.084195  0.720364
			 0.728326 -0.207440  0.653078
			 0.196780 -0.574201  0.794714
			-0.005950  0.191838  0.981409
			 0.677033  0.332684  0.656466
			-0.076794 -0.767358  0.636604
			 0.476128  0.446727  0.757454
			 0.908231 -0.037434  0.416791
			 0.826160  0.280354  0.488734
			 0.455646  0.029349  0.889677
			 0.018155  0.123168  0.992220
			-0.397265 -0.883662  0.247634
			-0.632271 -0.730930 -0.256854
			-0.667430 -0.462092 -0.583959
			 0.032820  0.921051  0.388057
			 0.308804  0.875235  0.372295
			 0.393211  0.773088  0.497715
			 0.330196  0.847723  0.415133
			 0.218992  0.808218  0.546650
			-0.613537 -0.405628  0.677523
			-0.614849 -0.058258 -0.786490
			-0.629028 -0.388039  0.673609
			-0.630155 -0.274817 -0.726210
			-0.642248 -0.389776 -0.659994
			-0.709457 -0.273998  0.649304
			-0.702538 -0.315428 -0.637923
			 0.541767 -0.214642 -0.812660
			 0.340272 -0.418266 -0.842181
			 0.131690 -0.587190 -0.798665
			-0.050941 -0.709968 -0.702390
			-0.331984 -0.875172 -0.351938
			-0.584763 -0.785118  0.204066
			 0.653095  0.493019 -0.574804
			 0.496046  0.657474 -0.567156
			 0.614016  0.111741 -0.781343
			 0.592075  0.152693 -0.791285
			 0.355904  0.464692 -0.810798
			 0.349829  0.607030 -0.713537
			 0.563017 -0.161325 -0.810547
			 0.276048  0.052176 -0.959727
			 0.500457 -0.019027 -0.865552
			 0.179527  0.179969 -0.967151
			 0.914179 -0.011076 -0.405160
			 0.420817 -0.349034 -0.837310
			 0.815062  0.128520 -0.564939
			 0.912680 -0.053030 -0.405220
			 0.806126  0.544435 -0.231843
			 0.311586  0.713160 -0.627946
			-0.023506  0.970411  0.240311
			 0.305411  0.802350 -0.512795
			 0.280093  0.947043 -0.157029
			-0.611439 -0.390767  0.688072
			-0.723870 -0.267491  0.635972
			-0.447518  0.171103 -0.877753
			-0.402329  0.099978 -0.910020
			-0.342302  0.295907 -0.891779
			-0.495514  0.261987 -0.828148
			-0.493736  0.320113 -0.808550
			-0.174433 -0.019529 -0.984475
			-0.256338  0.143135 -0.955931
			-0.233894  0.177172 -0.955983
			-0.108135  0.908541 -0.403560
			-0.292714  0.266889  0.918199
			-0.510178 -0.142592  0.848166
			-0.157733  0.283046  0.946047
			-0.301029  0.292135  0.907766
			-0.366573  0.257625  0.894010
			-0.217019  0.089457  0.972060
			 0.012193  0.119210  0.992794
			-0.338683  0.230117  0.912327
			-0.710037  0.426991  0.559934
			-0.312992  0.393564  0.864375
			 0.635861 -0.096717  0.765720
			 0.394956 -0.295275  0.869955
			 0.141824 -0.550425  0.822751
			 0.494821  0.608769  0.620123
			 0.635358  0.444544  0.631428
			 0.320263  0.450676  0.833260
			 0.333816  0.568242  0.752109
			 0.625852  0.200282  0.753788
			 0.587775  0.043232  0.807869
			 0.917019  0.100304  0.386025
			 0.449720  0.059953  0.891155
			 0.230725  0.025713  0.972679
			 0.109042  0.104799  0.988497
			 0.590204 -0.176742  0.787668
			 0.564329 -0.175462  0.806689
			-0.089785 -0.741346  0.665090
			 0.243087 -0.036957  0.969300
			 0.880788 -0.159990  0.445664
			 0.639700  0.496223  0.586981
			-0.363164 -0.878479  0.310462
			 0.463200  0.804291 -0.372239
			 0.420475  0.904285  0.073964
			 0.252251  0.534832  0.806427
			-0.058670  0.997236 -0.045592
			 0.008022  0.657477  0.753432
			-0.015495  0.868818  0.494889
			-0.633201 -0.739855 -0.227315
			-0.652407 -0.397220 -0.645431
			-0.705896 -0.261524 -0.658268
			 0.328917  0.899769 -0.286757
			 0.209475  0.868092 -0.450041
			-0.033668  0.962280  0.269970
			-0.149018  0.794336  0.588918
			-0.510418 -0.147386  0.847202
			-0.515929  0.011733 -0.856551
			-0.608480 -0.075228  0.789995
			-0.514475 -0.149563 -0.844361
			-0.571576 -0.077489 -0.816882
			-0.642360 -0.130454  0.755219
			-0.591873 -0.071527 -0.802851
			 0.242686 -0.413857 -0.877398
			 0.198066 -0.370532 -0.907456
			 0.038872 -0.581980 -0.812273
			-0.329177 -0.879035 -0.344876
			-0.606939 -0.755101  0.247887
			-0.623642 -0.356058  0.695911
			 0.705984  0.528730 -0.471203
			 0.619209  0.756354 -0.210969
			 0.543013  0.178884 -0.820449
			 0.500508  0.798997 -0.333309
			 0.464275  0.653398 -0.597929
			 0.310739  0.685203 -0.658740
			 0.432085 -0.045919 -0.900663
			 0.331872  0.010320 -0.943268
			 0.031988  0.312731 -0.949303
			-0.062526  0.441464 -0.895098
			 0.296531 -0.203358 -0.933121
			 0.263929 -0.032764 -0.963985
			 0.441450  0.001988 -0.897284
			 0.077690  0.068493 -0.994622
			-0.285859  0.218656 -0.932992
			 0.227173 -0.289508 -0.929827
			 0.439369  0.638646 -0.631733
			 0.080371  0.992433  0.092827
			 0.178705  0.981980  0.061480
			-0.371667  0.901330  0.222415
			-0.214452  0.949515  0.228978
			 0.017078  0.998653 -0.048999
			-0.607962 -0.324182  0.724768
			-0.550274 -0.152854  0.820874
			-0.381019  0.214586 -0.899321
			-0.397701  0.221859 -0.890288
			-0.260709  0.126428 -0.957104
			-0.217683 -0.010639 -0.975962
			-0.210058  0.217561 -0.953175
			-0.096426  0.277828 -0.955779
			-0.589781  0.380252 -0.712437
			-0.346415  0.215861 -0.912908
			 0.012193  0.119210 -0.992794
			-0.179777  0.258716  0.949076
			-0.184697  0.329342  0.925970
			-0.406999  0.098246  0.908130
			-0.464341  0.148843  0.873060
			-0.044365 -0.011209  0.998953
			-0.307558  0.137242  0.941580
			-0.517719  0.820805  0.241341
			 0.166029  0.785016  0.596812
			 0.286218  0.874892 -0.390696
			 0.305204 -0.278496  0.910654
			 0.133750 -0.415426  0.899740
			-0.041624 -0.659192  0.750822
			 0.620665  0.720742  0.308716
			 0.679148  0.463745  0.568946
			 0.456009  0.666642  0.589613
			 0.481642  0.683165  0.548914
			 0.306074  0.686111  0.659977
			 0.587908  0.222225  0.777804
			-0.019340  0.229792  0.973047
			-0.062530  0.441458  0.895100
			 0.452297 -0.026679  0.891468
			 0.367378  0.031939  0.929523
			 0.493242  0.051920  0.868341
			 0.311097  0.033261  0.949796
			 0.072094  0.067927  0.995082
			-0.291494  0.177100  0.940035
			 0.295322 -0.178567  0.938562
			 0.200008 -0.293348  0.934850
			-0.330697 -0.879487  0.342261
			 0.499449  0.748856  0.435622
			 0.157149  0.987428  0.017056
			 0.194488  0.968036 -0.158366
			-0.621847 -0.742941 -0.247680
			 0.011427  0.977599 -0.210165
			-0.332550  0.941467 -0.055237
			-0.159357  0.976906 -0.142337
			 0.026447  0.986623  0.160858
			-0.626474 -0.321263 -0.710155
			-0.628158 -0.347342 -0.696255
			-0.568761 -0.182075 -0.802097
			-0.137111  0.797529 -0.587494
			-0.254771  0.187791  0.948592
			-0.174095  0.265128 -0.948366
			-0.296232  0.096451  0.950233
			-0.159063  0.165050 -0.973374
			-0.233474  0.079070 -0.969143
			-0.390189  0.077004  0.917509
			-0.372809  0.096508 -0.922876
			 0.248361 -0.288952 -0.924567
			 0.103240 -0.601317 -0.792312
			-0.291561 -0.919649 -0.263129
			-0.573165 -0.740277  0.351386
			-0.622372 -0.348982  0.700617
			-0.619804 -0.284551  0.731351
			 0.761542  0.564593 -0.318259
			 0.602313  0.776077  0.186878
			 0.549294  0.222715 -0.805403
			 0.568340  0.815644  0.108238
			 0.584187  0.807706  0.079600
			 0.361118  0.927532 -0.096322
			 0.317329  0.052910 -0.946838
			 0.408219  0.512099 -0.755720
			 0.725040  0.247305 -0.642773
			 0.058321  0.809204 -0.584626
			 0.459128  0.485155 -0.744194
			 0.275872 -0.065845 -0.958936
			 0.295783 -0.051017 -0.953892
			-0.474566  0.269349 -0.837997
			 0.270572  0.238636 -0.932654
			 0.267495 -0.225921 -0.936700
			 0.372505  0.462959 -0.804307
			 0.180135  0.479896 -0.858634
			-0.073105  0.431832 -0.898987
			 0.246294 -0.377295 -0.892741
			 0.291015  0.952192 -0.092957
			 0.164764  0.954593 -0.248203
			 0.114418  0.989218 -0.091414
			 0.180170  0.975539  0.125947
			-0.587763 -0.115007  0.800817
			-0.425605 -0.048333  0.903617
			-0.151415  0.406842 -0.900863
			-0.357447  0.205056 -0.911144
			-0.406891  0.060963 -0.911440
			-0.275898  0.100140 -0.955956
			 0.005628 -0.027693 -0.999601
			 0.205627  0.792356 -0.574361
			 0.258431  0.901154  0.348044
			-0.492498  0.848950 -0.191650
			 0.075187  0.230948  0.970057
			-0.060312  0.060627  0.996337
			 0.096138 -0.008178  0.995334
			-0.501415  0.081130  0.861395
			 0.146453  0.645401  0.749673
			 0.077947  0.963237  0.257097
			-0.259024  0.647934  0.716302
			 0.171766 -0.380058  0.908874
			 0.024102 -0.674002  0.738336
			-0.269725 -0.915316  0.299074
			 0.644247  0.759414 -0.090751
			 0.751707  0.497966  0.432395
			 0.584534  0.807879 -0.075174
			 0.611200  0.781642 -0.124382
			 0.376332  0.854289  0.358558
			 0.563325  0.235977  0.791821
			 0.403113  0.493829  0.770476
			 0.671849  0.286531  0.683021
			 0.336494  0.316553  0.886885
			 0.045042  0.560010  0.827260
			 0.322346  0.035605  0.945952
			-0.487369  0.306160  0.817764
			 0.238271  0.255638  0.936950
			 0.227130 -0.116774  0.966838
			 0.285087 -0.073073  0.955712
			 0.356324  0.630178  0.689861
			 0.150087  0.485712  0.861138
			-0.109450  0.504126  0.856667
			 0.210060 -0.286766  0.934687
			 0.240811 -0.382378  0.892074
			-0.568220 -0.771961 -0.284961
			 0.192027  0.975794 -0.104650
			 0.148996  0.971819  0.182666
			 0.129968  0.983916  0.122549
			 0.212544  0.972717 -0.092993
			-0.627135 -0.326739 -0.707067
			-0.624304 -0.295831 -0.722999
			-0.580030 -0.103155 -0.808037
			-0.349146 -0.035674 -0.936389
			-0.307383 -0.033055  0.951011
			-0.004869 -0.045755 -0.998941
			 0.046557  0.090815 -0.994779
			-0.344270  0.044859  0.937798
			-0.165931  0.155720  0.973765
			-0.212127  0.062329 -0.975252
			-0.169300  0.155132 -0.973279
			-0.352677  0.115237 -0.928622
			 0.079257 -0.628205 -0.774000