<?xml version="1.0"?>
<VTKFile type="PolyData" version="0.1" byte_order="LittleEndian" compressor="vtkZLibDataCompressor">
	<PolyData>
		<Piece NumberOfPoints="68" NumberOfVerts="0" NumberOfLines="0" NumberOfStrips="0" NumberOfPolys="132">
		<PointData Normals="Normals">
		<DataArray type="Float32" Name="Normals" NumberOfComponents="3" format="ascii">
			 0.804633 -0.521195 -0.284466
			 0.403923 -0.893366 -0.196835
			-0.172355 -0.847062 -0.502772
			 0.306786 -0.686031 -0.659730
			 0.864738 -0.482801  0.138319
			 0.998461 -0.054414  0.010742
			 0.663740 -0.517544 -0.539998
			 0.812068 -0.255927 -0.524450
			 0.100083 -0.992928 -0.063849
			-0.322836 -0.719299 -0.615130
			-0.226805 -0.836204 -0.499322
			-0.050749 -0.892054 -0.449070
			 0.165028 -0.674466 -0.719625
			 0.724126 -0.457800  0.515810
			 0.796597  0.212648  0.565874
			 0.908520  0.413776 -0.058139
			 0.368700 -0.369517 -0.852947
			 0.754449  0.303999 -0.581714
			 0.221427 -0.937689  0.267786
			-0.228964 -0.686995 -0.689648
			-0.172788 -0.680618 -0.711972
			 0.232157 -0.810294 -0.538077
			 0.244796 -0.907828 -0.340474
			 0.533249 -0.811180 -0.240069
			 0.117774 -0.965246  0.233301
			 0.088522 -0.995949  0.015821
			 0.541042 -0.325837  0.775309
			 0.654195  0.660889  0.367770
			 0.238293  0.901266  0.361850
			 0.167563  0.719793  0.673662
			 0.199530  0.377263  0.904356
			 0.210031 -0.024678  0.977383
			 0.457334  0.799681 -0.389046
			 0.441159  0.897261 -0.017361
			-0.175765  0.195770 -0.964770
			 0.105844 -0.639840  0.761185
			-0.458952 -0.101844 -0.882605
			 0.177282 -0.596034 -0.783144
			 0.554771 -0.660676 -0.505703
			 0.604523 -0.717134 -0.346801
			-0.282773 -0.957284  0.060394
			-0.301869 -0.395634  0.867381
			-0.674854 -0.098545  0.731342
			-0.718172 -0.671561  0.182305
			-0.203369  0.957908 -0.202616
			-0.421352  0.859794  0.288474
			-0.251660  0.521164  0.815510
			-0.290216  0.704895  0.647223
			-0.394138  0.218566  0.892684
			-0.614263  0.758619 -0.217205
			-0.306263  0.345781 -0.886926
			 0.337234  0.052622 -0.939949
			-0.155084 -0.936499 -0.314512
			 0.601244 -0.503577 -0.620415
			-0.929003 -0.353059  0.110915
			-0.850800 -0.487582 -0.195968
			-0.989060 -0.019101  0.146272
			-0.841525  0.238604  0.484669
			-0.938031 -0.310400  0.154108
			-0.632710  0.571363  0.522707
			-0.797245  0.546154  0.257131
			-0.678863  0.698399 -0.226682
			-0.829023  0.540555 -0.143255
			 0.049819  0.757822 -0.650557
			-0.549501 -0.492618 -0.674815
			 0.196164  0.592451 -0.781359
			-0.878357  0.476504 -0.037846
			-0.985681 -0.117631  0.120810
		</DataArray>
	</PointData>
	<Points>
		<DataArray type="Float32" NumberOfComponents="3" format="ascii">
			 0.006942 -0.005752  0.003262
			 0.004551 -0.009215  0.007804
			 0.004990 -0.007899  0.004332
			 0.006033 -0.004796  0.000427
			 0.006404 -0.007793  0.008042
			 0.007614 -0.002037  0.003447
			 0.006342 -0.003671 -0.000093
			 0.006544 -0.002501 -0.001122
			 0.003113 -0.009773  0.011046
			 0.004042 -0.004393  0.001085
			 0.002158 -0.005212  0.003514
			-0.000578 -0.007111  0.009213
			 0.005858 -0.003116 -0.000983
			 0.005024 -0.008322  0.010713
			 0.006156 -0.002218  0.009622
			 0.007499  0.000208  0.003468
			 0.005355 -0.001842 -0.002250
			 0.005920 -0.000466 -0.001626
			 0.001146 -0.009880  0.012837
			-0.000299 -0.003177  0.001685
			 0.004787 -0.001913 -0.002186
			-0.001827 -0.005571  0.004185
			-0.001032 -0.006029  0.005978
			-0.006068 -0.008869  0.005982
			-0.003959 -0.010357  0.013294
			-0.001239 -0.009940  0.013497
			 0.001071 -0.008110  0.015063
			 0.005113  0.002271  0.007105
			 0.001903  0.003545  0.008247
			 0.001456  0.001924  0.011834
			-0.000797 -0.003036  0.015591
			-0.001790 -0.005907  0.016647
			 0.005204  0.001387 -0.000508
			 0.004310  0.003200  0.005352
			 0.003712 -0.000111 -0.003238
			-0.001184 -0.008367  0.015727
			-0.000779 -0.001288  0.000454
			-0.002451 -0.004004  0.002572
			-0.003713 -0.006798  0.004233
			-0.008240 -0.010453  0.001912
			-0.007919 -0.010191  0.005715
			-0.003415 -0.007365  0.016033
			-0.006551 -0.006564  0.014344
			-0.007614 -0.011666  0.010857
			 0.000322  0.003815  0.004819
			-0.003832  0.001584  0.009732
			-0.002896 -0.002622  0.015122
			-0.002234  0.000131  0.013307
			-0.003753 -0.005716  0.016229
			-0.005242  0.000603  0.007437
			-0.002935 -0.002121  0.001354
			-0.006766 -0.005057  0.000604
			-0.009550 -0.010868  0.001413
			-0.009415 -0.009672  0.000114
			-0.010717 -0.009418  0.001235
			-0.008295 -0.008931  0.009303
			-0.010224 -0.005679  0.005620
			-0.008272 -0.005152  0.011412
			-0.008908 -0.008834  0.010165
			-0.005538 -0.000838  0.011710
			-0.007489 -0.001578  0.009417
			-0.007745 -0.001415  0.006820
			-0.010560 -0.006233  0.002709
			-0.008141 -0.006093 -0.000629
			-0.010533 -0.007362 -0.002683
			-0.009718 -0.006413 -0.002336
			-0.011090 -0.007688  0.000310
			-0.009761 -0.006815  0.008669
		</DataArray>
	</Points>
			<Polys>
				<DataArray type="Int32" Name="connectivity" format="ascii">
					0 1 2 
					3 0 2 
					4 1 0 
					5 4 0 
					3 6 0 
					6 7 0 
					5 0 7 
					8 2 1 
					8 1 4 
					9 2 10 
					3 2 9 
					8 11 2 
					10 2 11 
					12 3 9 
					3 12 6 
					13 8 4 
					14 13 4 
					14 4 5 
					15 5 7 
					5 15 14 
					6 12 7 
					12 16 7 
					7 16 17 
					7 17 15 
					8 13 18 
					11 8 18 
					19 9 10 
					20 9 19 
					20 12 9 
					19 10 21 
					22 21 10 
					11 22 10 
					22 11 23 
					23 11 24 
					11 18 25 
					11 25 24 
					16 12 20 
					14 26 13 
					13 26 18 
					15 27 14 
					27 28 14 
					14 29 30 
					31 14 30 
					31 26 14 
					14 28 29 
					15 17 32 
					15 33 27 
					15 32 33 
					34 16 20 
					34 17 16 
					17 34 32 
					35 18 26 
					35 25 18 
					34 19 36 
					34 20 19 
					36 19 37 
					19 21 37 
					37 21 38 
					23 38 21 
					21 22 23 
					39 23 40 
					23 39 38 
					40 23 24 
					35 41 24 
					42 24 41 
					25 35 24 
					43 24 42 
					43 40 24 
					26 31 35 
					33 28 27 
					33 44 28 
					28 44 45 
					29 28 45 
					29 46 30 
					46 29 47 
					45 47 29 
					48 30 46 
					48 31 30 
					35 31 41 
					48 41 31 
					34 44 32 
					44 33 32 
					34 36 49 
					34 49 44 
					49 36 50 
					37 50 36 
					50 37 51 
					37 38 51 
					51 38 39 
					39 40 52 
					39 53 51 
					53 39 52 
					40 54 52 
					55 56 40 
					40 56 54 
					55 40 43 
					48 42 41 
					42 57 58 
					59 57 42 
					48 59 42 
					42 58 43 
					55 43 58 
					49 45 44 
					49 59 45 
					47 45 59 
					59 48 46 
					59 46 47 
					60 49 61 
					59 49 60 
					49 50 61 
					61 50 51 
					62 51 63 
					51 62 61 
					53 63 51 
					52 54 64 
					53 52 64 
					53 65 63 
					65 53 64 
					54 56 62 
					66 54 62 
					64 54 66 
					67 56 55 
					58 67 55 
					67 60 56 
					61 62 56 
					61 56 60 
					67 58 57 
					57 59 60 
					57 60 67 
					62 63 66 
					65 66 63 
					64 66 65 
				</DataArray>
				<DataArray type="Int32" Name="offsets" format="ascii">
					3 6 9 12 15 18 21 24 27 30 33 36 39 42 45 48 51 54 57 60 63 66 69 72 75 78 81 84 87 90 93 96 99 102 105 108 111 114 117 120 123 126 129 132 135 138 141 144 147 150 153 156 159 162 165 168 171 174 177 180 183 186 189 192 195 198 201 204 207 210 213 216 219 222 225 228 231 234 237 240 243 246 249 252 255 258 261 264 267 270 273 276 279 282 285 288 291 294 297 300 303 306 309 312 315 318 321 324 327 330 333 336 339 342 345 348 351 354 357 360 363 366 369 372 375 378 381 384 387 390 393 396 
				</DataArray>
			</Polys>
		</Piece>
	</PolyData>
</VTKFile>
