<?xml version="1.0"?>
<VTKFile type="PolyData" version="0.1" byte_order="LittleEndian" compressor="vtkZLibDataCompressor">
	<PolyData>
		<Piece NumberOfPoints="76" NumberOfVerts="0" NumberOfLines="0" NumberOfStrips="0" NumberOfPolys="148">
		<PointData Normals="Normals">
		<DataArray type="Float32" Name="Normals" NumberOfComponents="3" format="ascii">
			-0.737503 -0.671355 -0.073288
			-0.486870 -0.835225  0.255649
			-0.467907 -0.883029 -0.036377
			-0.587730 -0.753947 -0.293493
			-0.253033 -0.595814  0.762221
			-0.260014 -0.532626 -0.805420
			-0.395938 -0.363591  0.843229
			-0.325722 -0.654911  0.681907
			-0.274124 -0.165395 -0.947365
			 0.124297 -0.980470 -0.152412
			-0.379374 -0.914719 -0.139158
			 0.031070 -0.079389  0.996359
			 0.187468  0.176564  0.966272
			 0.136239 -0.298547  0.944621
			 0.390528 -0.521064 -0.758934
			 0.341715 -0.119091  0.932228
			 0.555171 -0.728587  0.401181
			-0.339212  0.146492 -0.929234
			-0.383260 -0.268453 -0.883768
			-0.112892  0.427564 -0.896908
			 0.646242 -0.114114 -0.754552
			 0.515769  0.280058 -0.809660
			 0.834121 -0.494786 -0.243782
			-0.136810 -0.887590  0.439849
			-0.249813 -0.287926 -0.924495
			-0.273927 -0.649804 -0.709027
			 0.416165  0.551561  0.722902
			 0.416961  0.631543  0.653680
			 0.346028  0.617328  0.706520
			 0.208199  0.976071 -0.062758
			 0.135805 -0.536828  0.832690
			 0.305523  0.171219  0.936664
			 0.833307  0.119794  0.539675
			 0.909536 -0.278825  0.308222
			-0.178055  0.648322 -0.740253
			-0.173257  0.309594 -0.934951
			 0.449164  0.636607 -0.626884
			 0.210481  0.915788 -0.342098
			 0.985268 -0.006054 -0.170909
			 0.891046  0.406780 -0.201413
			-0.008480 -0.957224  0.289223
			-0.137539 -0.807910 -0.573031
			 0.085606  0.553753 -0.828269
			 0.551528  0.829590 -0.087165
			 0.731526  0.587881  0.345350
			 0.345269  0.871764  0.347588
			 0.134498 -0.458877  0.878261
			 0.293849  0.621147  0.726518
			 0.096437 -0.004235  0.995330
			-0.104300 -0.981827 -0.158545
			-0.290972 -0.919298  0.265003
			-0.226251 -0.498840 -0.836642
			-0.079621 -0.141937 -0.986668
			 0.162026  0.756455 -0.633658
			 0.156017  0.987729  0.007068
			-0.055659 -0.172355  0.983461
			 0.012124  0.630802  0.775849
			-0.250250  0.416548  0.873992
			-0.254698  0.080114  0.963696
			-0.033885 -0.318928  0.947173
			-0.835587 -0.549177 -0.014124
			-0.914924 -0.398189  0.066036
			-0.038324 -0.139041  0.989545
			-0.116073 -0.632860 -0.765516
			-0.312957 -0.257001  0.914335
			-0.002281  0.085957 -0.996296
			-0.242258  0.757614 -0.606080
			 0.073976  0.983975  0.162239
			-0.627404  0.702368  0.336220
			-0.248153  0.469019  0.847609
			-0.084118  0.412878  0.906894
			-0.630807  0.101449  0.769279
			-0.663798  0.124968  0.737398
			-0.642319  0.162445  0.749025
			-0.715480  0.247208  0.653434
			-0.775531 -0.071823 -0.627211
		</DataArray>
	</PointData>
	<Points>
		<DataArray type="Float32" NumberOfComponents="3" format="ascii">
			 0.144795  0.000027 -0.028074
			 0.148330 -0.002228 -0.026773
			 0.148023 -0.003700 -0.029026
			 0.141485  0.002893 -0.027130
			 0.141629  0.003059 -0.026440
			 0.148684 -0.002553 -0.030676
			 0.146831  0.000161 -0.025594
			 0.148390 -0.002330 -0.025689
			 0.151261  0.000304 -0.032210
			 0.150967 -0.004004 -0.028808
			 0.135923  0.005566 -0.024997
			 0.148727  0.002808 -0.025232
			 0.141903  0.010016 -0.023990
			 0.133238  0.010270 -0.021825
			 0.153303 -0.000572 -0.031819
			 0.152524  0.000197 -0.025079
			 0.152634 -0.003070 -0.026912
			 0.142520  0.007625 -0.028905
			 0.137927  0.006429 -0.026968
			 0.147057  0.008374 -0.030607
			 0.154493  0.001688 -0.031718
			 0.154007  0.004133 -0.031672
			 0.154640 -0.000003 -0.030096
			 0.130112  0.007728 -0.023264
			 0.135436  0.007234 -0.026499
			 0.129761  0.007713 -0.025484
			 0.151776  0.007701 -0.026416
			 0.149554  0.008792 -0.024808
			 0.135440  0.012784 -0.022903
			 0.142170  0.011374 -0.025743
			 0.113201  0.013667 -0.018328
			 0.110589  0.017727 -0.016540
			 0.154597  0.004996 -0.026649
			 0.154353 -0.000703 -0.027443
			 0.143250  0.009613 -0.028268
			 0.138879  0.009904 -0.027404
			 0.153170  0.006352 -0.030859
			 0.147833  0.009576 -0.029279
			 0.155000  0.001902 -0.030704
			 0.154682  0.005537 -0.029211
			 0.111902  0.011392 -0.020712
			 0.115993  0.011034 -0.023883
			 0.125126  0.017060 -0.023732
			 0.152897  0.007823 -0.028526
			 0.154157  0.006583 -0.026940
			 0.103605  0.023689 -0.018266
			 0.102785  0.012799 -0.015217
			 0.103168  0.021945 -0.015936
			 0.101594  0.018675 -0.014037
			 0.109963  0.011194 -0.022863
			 0.095223  0.012693 -0.015111
			 0.104709  0.012939 -0.024324
			 0.100731  0.018744 -0.023873
			 0.101353  0.023817 -0.021390
			 0.096922  0.025865 -0.018228
			 0.100810  0.016994 -0.014491
			 0.094809  0.025805 -0.016752
			 0.097083  0.022197 -0.014540
			 0.094729  0.018702 -0.013901
			 0.098459  0.017317 -0.014548
			 0.088229  0.018759 -0.022661
			 0.093156  0.013968 -0.015987
			 0.098693  0.016631 -0.014683
			 0.092609  0.018638 -0.023878
			 0.093330  0.017888 -0.014529
			 0.092928  0.020318 -0.024683
			 0.088725  0.022807 -0.023514
			 0.094678  0.026042 -0.017246
			 0.092717  0.026000 -0.016933
			 0.095096  0.019510 -0.014949
			 0.093017  0.024768 -0.015584
			 0.096181  0.022898 -0.015044
			 0.095823  0.022523 -0.015675
			 0.096310  0.021707 -0.014917
			 0.093498  0.018844 -0.014232
			 0.087653  0.020822 -0.023906
		</DataArray>
	</Points>
			<Polys>
				<DataArray type="Int32" Name="connectivity" format="ascii">
					2 1 0 
					0 4 3 
					2 0 5 
					0 7 6 
					7 0 1 
					4 0 6 
					5 0 8 
					0 3 8 
					9 7 1 
					1 2 9 
					2 5 9 
					10 3 4 
					3 10 8 
					6 11 4 
					13 4 12 
					4 13 10 
					11 12 4 
					8 14 5 
					9 5 14 
					7 11 6 
					11 7 15 
					15 7 16 
					16 7 9 
					18 17 8 
					19 8 17 
					14 8 20 
					8 19 21 
					10 18 8 
					8 21 20 
					22 16 9 
					22 9 14 
					10 13 23 
					10 24 18 
					23 25 10 
					10 25 24 
					11 15 26 
					11 26 27 
					27 12 11 
					12 29 28 
					12 27 29 
					13 12 28 
					30 23 13 
					31 30 13 
					28 31 13 
					14 20 22 
					26 15 32 
					32 15 33 
					16 33 15 
					22 33 16 
					19 17 34 
					18 35 17 
					34 17 35 
					24 35 18 
					19 36 21 
					36 19 37 
					37 19 34 
					21 38 20 
					22 20 38 
					39 38 21 
					36 39 21 
					22 38 33 
					41 23 40 
					25 23 41 
					23 30 40 
					42 35 24 
					25 42 24 
					25 41 42 
					26 37 27 
					26 43 37 
					43 26 44 
					44 26 32 
					37 29 27 
					28 42 45 
					42 28 29 
					45 31 28 
					42 29 35 
					34 35 29 
					37 34 29 
					46 40 30 
					46 30 31 
					31 45 47 
					31 48 46 
					31 47 48 
					39 44 32 
					38 39 32 
					32 33 38 
					39 36 43 
					43 36 37 
					43 44 39 
					41 40 49 
					49 40 50 
					50 40 46 
					51 41 49 
					51 42 41 
					52 42 51 
					52 53 42 
					42 53 45 
					47 45 54 
					45 53 54 
					48 55 46 
					50 46 55 
					47 54 56 
					57 47 56 
					57 48 47 
					48 57 58 
					55 48 59 
					58 59 48 
					51 49 50 
					61 60 50 
					62 50 55 
					63 52 50 
					50 60 63 
					51 50 52 
					50 62 64 
					64 61 50 
					53 52 65 
					52 63 65 
					54 53 66 
					66 53 65 
					56 54 67 
					68 54 66 
					68 67 54 
					62 55 59 
					56 67 68 
					70 69 56 
					68 70 56 
					71 57 56 
					72 71 56 
					69 72 56 
					57 71 73 
					58 57 69 
					73 69 57 
					64 59 58 
					74 58 69 
					74 64 58 
					59 64 62 
					60 75 63 
					74 60 61 
					74 68 60 
					60 68 75 
					61 64 74 
					75 65 63 
					66 65 75 
					75 68 66 
					68 74 70 
					72 69 73 
					70 74 69 
					71 72 73 
				</DataArray>
				<DataArray type="Int32" Name="offsets" format="ascii">
					3 6 9 12 15 18 21 24 27 30 33 36 39 42 45 48 51 54 57 60 63 66 69 72 75 78 81 84 87 90 93 96 99 102 105 108 111 114 117 120 123 126 129 132 135 138 141 144 147 150 153 156 159 162 165 168 171 174 177 180 183 186 189 192 195 198 201 204 207 210 213 216 219 222 225 228 231 234 237 240 243 246 249 252 255 258 261 264 267 270 273 276 279 282 285 288 291 294 297 300 303 306 309 312 315 318 321 324 327 330 333 336 339 342 345 348 351 354 357 360 363 366 369 372 375 378 381 384 387 390 393 396 399 402 405 408 411 414 417 420 423 426 429 432 435 438 441 444 
				</DataArray>
			</Polys>
		</Piece>
	</PolyData>
</VTKFile>
