<?xml version="1.0"?>
<VTKFile type="PolyData" version="0.1" byte_order="LittleEndian" compressor="vtkZLibDataCompressor">
	<PolyData>
		<Piece NumberOfPoints="82" NumberOfVerts="0" NumberOfLines="0" NumberOfStrips="0" NumberOfPolys="160">
		<PointData Normals="Normals">
		<DataArray type="Float32" Name="Normals" NumberOfComponents="3" format="ascii">
			-0.624595 -0.609472  0.488288
			-0.536172 -0.635366 -0.555724
			-0.461010 -0.876141 -0.140883
			-0.434972 -0.750856  0.497006
			-0.280610 -0.715942 -0.639285
			-0.274332 -0.069836  0.959096
			-0.042738 -0.003151  0.999081
			-0.337783 -0.543435  0.768492
			-0.406245 -0.352891  0.842872
			-0.437167 -0.218258  0.872496
			-0.560319 -0.763538 -0.321018
			 0.096339  0.120864 -0.987983
			-0.488898 -0.674496 -0.553203
			 0.252726 -0.967351  0.019020
			-0.030839 -0.830608  0.556004
			-0.280963 -0.861562 -0.422812
			-0.027444  0.177262  0.983781
			-0.255988 -0.630020  0.733174
			-0.101566 -0.827819 -0.551724
			 0.065655 -0.199281 -0.977741
			 0.315872 -0.406226  0.857441
			 0.408455  0.369077  0.834833
			-0.142725  0.252006  0.957143
			 0.282769  0.602450  0.746389
			-0.275039  0.144569  0.950502
			 0.413018  0.902772  0.120076
			 0.362439  0.919210 -0.153919
			 0.346994  0.736168 -0.581078
			 0.663370  0.448971 -0.598637
			 0.399679 -0.107472 -0.910333
			 0.048793 -0.574395 -0.817123
			 0.395841  0.675115 -0.622519
			 0.145563 -0.918011 -0.368872
			 0.692419 -0.679577 -0.242345
			-0.026503  0.529716  0.847761
			 0.180069  0.741747  0.646054
			 0.037189  0.066868  0.997069
			 0.331724  0.758902  0.560380
			-0.250544 -0.877937  0.407987
			 0.232901 -0.158280 -0.959534
			 0.071560 -0.757320 -0.649112
			 0.216397 -0.390518 -0.894800
			 0.338930  0.378794 -0.861186
			 0.879133 -0.273558  0.390246
			 0.882259  0.428031  0.195981
			 0.498865  0.832595  0.240664
			 0.910902 -0.166099 -0.377715
			 0.385076  0.902077 -0.194868
			 0.270814  0.745477  0.609035
			-0.039163 -0.563738  0.825025
			-0.296038 -0.874915  0.383256
			 0.372745  0.323921 -0.869561
			-0.249065 -0.952718 -0.174056
			 0.001226 -0.243154 -0.969987
			 0.114987 -0.222369 -0.968158
			 0.281030 -0.103142 -0.954140
			 0.996338 -0.040338  0.075388
			 0.448229  0.516717 -0.729448
			-0.561905  0.750530 -0.347805
			-0.257110  0.963859  0.069787
			-0.303015  0.039804  0.952154
			-0.461474  0.770004  0.440607
			-0.210252 -0.843351  0.494523
			 0.205716 -0.957066  0.204220
			-0.431437 -0.640248  0.635566
			 0.010043 -0.973659  0.227786
			-0.495572 -0.561685  0.662509
			-0.617157 -0.720897 -0.315318
			 0.017788 -0.209965 -0.977547
			 0.380156 -0.058409 -0.923076
			 0.194002  0.034239 -0.980403
			-0.767617  0.046271 -0.639236
			 0.193598 -0.077612 -0.978006
			-0.051638  0.261690 -0.963770
			-0.978568 -0.050114  0.199732
			-0.637189  0.254424 -0.727501
			-0.935526  0.345575 -0.073278
			-0.927854  0.102306  0.358636
			-0.143250 -0.979626  0.140758
			-0.621872 -0.676882  0.393835
			-0.737382 -0.531858  0.416407
			-0.887996 -0.398756  0.229034
		</DataArray>
	</PointData>
	<Points>
		<DataArray type="Float32" NumberOfComponents="3" format="ascii">
			 0.162175  0.003350  0.000344
			 0.162368  0.003563 -0.000525
			 0.169003 -0.005142  0.001087
			 0.159541  0.005029  0.000376
			 0.156404  0.007591 -0.002322
			 0.172182 -0.002036  0.005412
			 0.170374  0.000896  0.003971
			 0.172072 -0.004697  0.003791
			 0.167451  0.002933  0.004769
			 0.162254  0.005199  0.001338
			 0.169545 -0.002939 -0.001459
			 0.170826  0.006998 -0.003694
			 0.170537 -0.003892 -0.002303
			 0.174236 -0.005947  0.001135
			 0.173249 -0.005167  0.003709
			 0.172154 -0.005194  0.000587
			 0.152218  0.014611  0.000566
			 0.139095  0.014758 -0.001083
			 0.132123  0.017559 -0.005487
			 0.139332  0.018597 -0.006570
			 0.176818 -0.002213  0.005555
			 0.178164  0.002655  0.004582
			 0.168306  0.005548  0.005091
			 0.169616  0.007425  0.004068
			 0.163996  0.007720  0.002558
			 0.153949  0.016765 -0.001117
			 0.168371  0.009942 -0.001559
			 0.172564  0.007910 -0.003080
			 0.178666  0.005147 -0.001218
			 0.177068 -0.002223 -0.002965
			 0.175252 -0.004385 -0.002877
			 0.150040  0.017381 -0.005293
			 0.175757 -0.005328 -0.001593
			 0.177217 -0.004097 -0.001979
			 0.164505  0.008645  0.002184
			 0.163967  0.011939 -0.000438
			 0.138388  0.018323 -0.000425
			 0.136606  0.024927 -0.002335
			 0.127716  0.017072 -0.001765
			 0.134501  0.021721 -0.007864
			 0.119633  0.020093 -0.010216
			 0.129308  0.019387 -0.008365
			 0.135231  0.024270 -0.007081
			 0.179798 -0.000310  0.003679
			 0.179822  0.003222  0.001514
			 0.177371  0.005975  0.000838
			 0.180212  0.000044 -0.001038
			 0.120317  0.033638 -0.005689
			 0.118414  0.033401 -0.002634
			 0.122000  0.025860  0.001667
			 0.118630  0.019809 -0.005849
			 0.131229  0.025283 -0.008312
			 0.112823  0.019599 -0.010737
			 0.114161  0.020913 -0.011672
			 0.121718  0.024253 -0.011145
			 0.124313  0.025538 -0.010907
			 0.180531  0.000582  0.001320
			 0.118792  0.032305 -0.011271
			 0.112217  0.034894 -0.010805
			 0.112713  0.035182 -0.006268
			 0.112655  0.028875  0.002506
			 0.111653  0.034307 -0.001092
			 0.116730  0.022376 -0.003970
			 0.113550  0.022254 -0.005113
			 0.113558  0.023098 -0.002845
			 0.112285  0.021463 -0.005130
			 0.110612  0.026773 -0.000346
			 0.109656  0.021321 -0.010286
			 0.121206  0.025053 -0.011160
			 0.119979  0.027860 -0.012357
			 0.119484  0.028503 -0.012609
			 0.111039  0.028857 -0.011184
			 0.122362  0.025662 -0.011478
			 0.114062  0.032209 -0.012835
			 0.110264  0.028276 -0.000126
			 0.111842  0.032920 -0.011951
			 0.111871  0.033966 -0.006826
			 0.110012  0.029817  0.000600
			 0.111627  0.021529 -0.007014
			 0.111833  0.021563 -0.005544
			 0.110011  0.024331 -0.003504
			 0.109454  0.022634 -0.008235
		</DataArray>
	</Points>
			<Polys>
				<DataArray type="Int32" Name="connectivity" format="ascii">
					0 1 2 
					3 4 0 
					0 5 6 
					1 0 4 
					0 7 5 
					0 6 8 
					0 8 9 
					9 3 0 
					0 2 7 
					1 10 2 
					4 11 1 
					11 12 1 
					10 1 12 
					13 14 2 
					2 10 15 
					15 13 2 
					14 7 2 
					9 16 3 
					17 18 3 
					4 3 18 
					17 3 16 
					18 19 4 
					11 4 19 
					5 20 6 
					7 20 5 
					20 21 6 
					22 8 6 
					6 23 22 
					21 23 6 
					20 7 14 
					9 8 22 
					9 24 16 
					9 22 24 
					10 12 15 
					25 26 11 
					27 11 26 
					28 29 11 
					29 30 11 
					28 11 27 
					30 12 11 
					31 25 11 
					31 11 19 
					12 30 15 
					15 32 13 
					13 20 14 
					13 32 33 
					20 13 33 
					30 32 15 
					34 35 16 
					35 25 16 
					16 24 34 
					36 17 16 
					16 37 36 
					25 37 16 
					18 17 38 
					38 17 36 
					18 39 19 
					18 38 40 
					18 41 39 
					41 18 40 
					39 42 19 
					31 19 42 
					21 20 43 
					43 20 33 
					21 43 44 
					21 44 45 
					21 45 23 
					22 35 34 
					22 34 24 
					35 22 23 
					23 26 35 
					45 26 23 
					25 31 37 
					25 35 26 
					26 45 27 
					27 45 28 
					46 28 44 
					44 28 45 
					29 28 46 
					29 46 33 
					29 33 30 
					33 32 30 
					31 47 37 
					47 31 42 
					43 33 46 
					48 49 36 
					48 36 37 
					38 36 49 
					47 48 37 
					50 40 38 
					38 49 50 
					39 51 42 
					51 39 41 
					50 52 40 
					52 53 40 
					40 53 54 
					55 40 54 
					40 55 41 
					51 41 55 
					42 51 47 
					56 44 43 
					43 46 56 
					46 44 56 
					47 51 57 
					47 58 59 
					58 47 57 
					48 47 59 
					49 48 60 
					61 48 59 
					48 61 60 
					62 49 63 
					49 64 65 
					49 65 63 
					64 49 66 
					49 60 66 
					49 62 50 
					62 52 50 
					55 57 51 
					53 52 67 
					62 67 52 
					54 53 68 
					68 53 69 
					70 69 53 
					53 71 70 
					53 67 71 
					72 54 68 
					72 55 54 
					55 72 57 
					70 73 57 
					57 69 70 
					57 72 69 
					58 57 73 
					71 74 58 
					71 58 75 
					58 74 76 
					75 58 73 
					58 76 59 
					59 76 61 
					74 60 77 
					60 61 77 
					66 60 74 
					61 76 77 
					62 78 67 
					78 62 63 
					65 78 63 
					64 79 65 
					66 80 64 
					80 81 64 
					64 81 79 
					78 65 79 
					80 66 74 
					78 81 67 
					71 67 81 
					69 72 68 
					71 73 70 
					81 74 71 
					75 73 71 
					74 81 80 
					74 77 76 
					78 79 81 
				</DataArray>
				<DataArray type="Int32" Name="offsets" format="ascii">
					3 6 9 12 15 18 21 24 27 30 33 36 39 42 45 48 51 54 57 60 63 66 69 72 75 78 81 84 87 90 93 96 99 102 105 108 111 114 117 120 123 126 129 132 135 138 141 144 147 150 153 156 159 162 165 168 171 174 177 180 183 186 189 192 195 198 201 204 207 210 213 216 219 222 225 228 231 234 237 240 243 246 249 252 255 258 261 264 267 270 273 276 279 282 285 288 291 294 297 300 303 306 309 312 315 318 321 324 327 330 333 336 339 342 345 348 351 354 357 360 363 366 369 372 375 378 381 384 387 390 393 396 399 402 405 408 411 414 417 420 423 426 429 432 435 438 441 444 447 450 453 456 459 462 465 468 471 474 477 480 
				</DataArray>
			</Polys>
		</Piece>
	</PolyData>
</VTKFile>
