<?xml version="1.0"?>
<VTKFile type="PolyData" version="0.1" byte_order="LittleEndian" compressor="vtkZLibDataCompressor">
	<PolyData>
		<Piece NumberOfPoints="384" NumberOfVerts="0" NumberOfLines="0" NumberOfStrips="0" NumberOfPolys="768">
		<PointData Normals="Normals">
		<DataArray type="Float32" Name="Normals" NumberOfComponents="3" format="ascii">
			-0.031818  0.277174  0.960293
			 0.503638  0.544060  0.671080
			-0.298822  0.117372  0.947063
			-0.316492 -0.063028  0.946499
			 0.240555  0.887359  0.393354
			 0.122202 -0.014612  0.992398
			 0.086343  0.634103  0.768413
			 0.652010  0.585366  0.481901
			 0.646041  0.246167  0.722518
			 0.814827  0.459284  0.353717
			 0.328598  0.304830  0.893925
			 0.807860  0.316270  0.497329
			 0.220499  0.574387  0.788327
			 0.541219  0.168729  0.823779
			 0.536901  0.438210  0.720909
			 0.696763  0.717224  0.010544
			 0.936471  0.300043 -0.181647
			-0.220093  0.032122  0.974950
			-0.362475  0.194887  0.911389
			-0.126185  0.140801  0.981964
			-0.379684  0.055104  0.923474
			-0.219524 -0.272044  0.936910
			 0.462562 -0.386474  0.797919
			 0.118327 -0.631436  0.766347
			 0.687957  0.552137 -0.471020
			 0.527114  0.849468  0.023548
			 0.814691 -0.060471  0.576734
			 0.824771  0.524632 -0.210983
			 0.957721  0.261732  0.119443
			 0.011230  0.351285  0.936201
			 0.674597  0.205194  0.709094
			 0.981768  0.060542 -0.180186
			-0.603101  0.289501  0.743275
			-0.022061  0.436859  0.899259
			 0.096708 -0.109423  0.989280
			 0.534925  0.128338  0.835095
			 0.842789  0.340107 -0.417174
			 0.946850  0.264488 -0.183087
			 0.871010  0.383751 -0.306720
			 0.657126  0.005286 -0.753762
			 0.757853  0.213219 -0.616601
			-0.257328  0.172551  0.950794
			 0.205152 -0.010001  0.978679
			 0.228995 -0.103734  0.967884
			-0.160200 -0.122710  0.979427
			-0.165682 -0.000571  0.986179
			-0.141390 -0.718341  0.681172
			 0.606849 -0.631211  0.483019
			 0.884264 -0.223612  0.409969
			 0.379010 -0.832555  0.403986
			-0.044903 -0.778205  0.626403
			 0.948285  0.219099 -0.229676
			 0.975126  0.058196 -0.213876
			 0.819062  0.138650 -0.556699
			 0.990169  0.045680  0.132208
			-0.795837  0.163099  0.583132
			-0.260044  0.275093  0.925582
			 0.549246  0.284776  0.785640
			 0.995456 -0.038052 -0.087292
			 0.110686  0.258362  0.959686
			 0.675602 -0.150405 -0.721762
			-0.550780  0.018724  0.834441
			-0.817632  0.013982  0.575571
			 0.168278 -0.007791  0.985709
			 0.570241 -0.142608  0.809004
			 0.131488 -0.172622  0.976173
			 0.795022  0.290122 -0.532699
			 0.964852  0.215406 -0.150537
			 0.880721  0.333946 -0.335874
			 0.470599  0.385909 -0.793480
			-0.129740 -0.166857 -0.977408
			 0.082585 -0.049383 -0.995360
			 0.378491  0.016576 -0.925457
			-0.423169 -0.451504  0.785539
			-0.503660 -0.246407  0.828016
			 0.642267 -0.157669  0.750089
			 0.249736 -0.281256  0.926567
			 0.087664 -0.334413  0.938341
			-0.286292 -0.336617  0.897065
			-0.067809 -0.901121  0.428232
			 0.656971 -0.752207  0.050744
			 0.837526 -0.360273  0.410795
			 0.916183 -0.400605 -0.011157
			 0.328003 -0.925663  0.188579
			 0.754441 -0.461904 -0.466330
			 0.836065 -0.181852 -0.517615
			-0.974378  0.032842  0.222504
			-0.754226  0.186852  0.629468
			-0.978048 -0.056124 -0.200677
			-0.988460 -0.000009  0.151485
			-0.234291  0.175598  0.956176
			-0.793855  0.113924  0.597340
			 0.859653  0.167973  0.482474
			 0.614476  0.188046  0.766197
			 0.153363  0.300194  0.941469
			 0.941441 -0.219899 -0.255603
			 0.657237 -0.297489 -0.692489
			 0.203309 -0.270597 -0.940980
			-0.473644 -0.086491  0.876459
			-0.737500 -0.212998  0.640879
			-0.174758 -0.250569  0.952195
			-0.892154 -0.357126  0.276626
			-0.931714 -0.062137  0.357838
			 0.968261  0.019739 -0.249162
			 0.661794 -0.153314 -0.733842
			 0.253494  0.138622 -0.957353
			-0.022153  0.025589 -0.999427
			-0.704511 -0.051312 -0.707835
			-0.794436 -0.082981 -0.601652
			 0.180176 -0.029906 -0.983180
			-0.165247  0.065097 -0.984102
			 0.312673 -0.291546 -0.904011
			 0.105512 -0.125118 -0.986515
			-0.470095 -0.824223  0.315702
			-0.566900 -0.545223  0.617541
			-0.008257 -0.416724  0.908996
			-0.444159 -0.488161  0.751280
			 0.182750 -0.962829 -0.198906
			 0.416021 -0.610798 -0.673686
			 0.539369 -0.449463 -0.712085
			 0.623647 -0.234566 -0.745683
			-0.991097  0.118602  0.060506
			-0.948632  0.048300  0.312674
			-0.871060  0.140823 -0.470557
			 0.358259  0.130474  0.924461
			-0.007808  0.009705  0.999922
			-0.460945  0.005714  0.887410
			-0.831148  0.039584  0.554641
			-0.987849  0.051572  0.146609
			-0.985134  0.157868 -0.067748
			 0.886201 -0.016351  0.463011
			 0.523949  0.083869  0.847611
			 0.743029 -0.009845  0.669186
			 0.964648 -0.261723 -0.030898
			 0.646220 -0.438666 -0.624478
			 0.532922 -0.420378 -0.734354
			-0.023598 -0.330097 -0.943652
			-0.730586 -0.417061  0.540652
			-0.621658 -0.783257  0.007079
			-0.520376 -0.563880 -0.641286
			-0.878980 -0.330007 -0.344224
			-0.945289 -0.224711  0.236503
			-0.865960 -0.443448  0.231229
			-0.130206 -0.068184 -0.989140
			-0.086977 -0.159046 -0.983432
			-0.618707 -0.030572 -0.785027
			 0.194585 -0.234313 -0.952489
			-0.755343 -0.062839 -0.652310
			-0.457604  0.070376 -0.886367
			 0.036600 -0.484237 -0.874171
			-0.040723 -0.518442 -0.854143
			-0.435124 -0.285473 -0.853916
			-0.305248 -0.920886 -0.242472
			-0.085845 -0.773961 -0.627388
			-0.191398 -0.345942 -0.918527
			-0.070357 -0.216871 -0.973662
			-0.998732 -0.033858  0.037259
			-0.734569 -0.091007 -0.672404
			-0.067498 -0.135832  0.988430
			-0.465676  0.005767  0.884936
			 0.313565  0.045037  0.948498
			-0.778922  0.085253  0.621299
			-0.972052  0.056488  0.227867
			-0.959952 -0.020198 -0.279434
			-0.970850 -0.176116 -0.162584
			-0.806030 -0.078706 -0.586618
			 0.851625 -0.110731  0.512321
			 0.636558  0.049017  0.769670
			 0.510803  0.112976  0.852242
			 0.472895  0.143623  0.869335
			 0.620095 -0.557993 -0.551477
			 0.928736 -0.368364  0.041916
			 0.828034 -0.098858  0.551894
			 0.236129 -0.418179 -0.877137
			 0.044354 -0.435029 -0.899324
			-0.148567 -0.500408 -0.852948
			-0.228812 -0.369598 -0.900579
			-0.197126 -0.219508 -0.955488
			-0.509184 -0.455205 -0.730425
			-0.865282 -0.490997 -0.101042
			-0.479122 -0.669068 -0.568147
			-0.768887 -0.560738 -0.307223
			-0.575787 -0.256939 -0.776178
			-0.309881 -0.675754 -0.668828
			-0.651821 -0.347122 -0.674267
			 0.423947 -0.005398  0.905671
			 0.462756 -0.077945  0.883052
			 0.458506 -0.255915  0.851046
			-0.760980 -0.214032  0.612454
			-0.380537 -0.443683  0.811380
			-0.961414  0.046931  0.271074
			-0.996145 -0.034801  0.080527
			-0.735011 -0.325523 -0.594805
			-0.904016 -0.361775 -0.227760
			-0.707261 -0.270448 -0.653177
			 0.831667 -0.053700  0.552672
			 0.701738  0.042481  0.711168
			 0.481497  0.205427  0.852033
			 0.583896  0.094850  0.806268
			 0.549948  0.233346  0.801939
			 0.653478  0.015570  0.756785
			 0.874008 -0.392055 -0.287060
			 0.230488 -0.642593 -0.730719
			-0.056126 -0.578330 -0.813870
			 0.153057 -0.388498 -0.908649
			 0.668507 -0.533267 -0.518387
			 0.959639 -0.129504  0.249642
			 0.960982 -0.270734 -0.056714
			-0.009691 -0.359766 -0.932992
			 0.161527 -0.132398 -0.977947
			-0.023457 -0.111077 -0.993535
			-0.532887 -0.491056 -0.689126
			 0.457967 -0.197595  0.866731
			-0.892565 -0.143239  0.427563
			-0.536468 -0.099986  0.837977
			-0.941956  0.245391  0.229135
			-0.884447  0.255284  0.390619
			-0.984914  0.002363  0.173028
			-0.995235  0.048014  0.084866
			-0.919660  0.060696  0.387996
			-0.731186 -0.470413 -0.494043
			-0.810824 -0.372858 -0.451156
			-0.480900 -0.584721 -0.653327
			-0.970595 -0.027698 -0.239119
			 0.972314  0.044452  0.229409
			 0.669153  0.210338  0.712736
			 0.719773  0.360836  0.593064
			 0.328220  0.564287  0.757530
			 0.999392  0.012328 -0.032610
			 0.938080 -0.099140 -0.331929
			 0.834696 -0.235070 -0.498021
			-0.155993 -0.539359 -0.827501
			 0.549310 -0.505128 -0.665661
			 0.253906 -0.390708 -0.884804
			-0.256748 -0.371609 -0.892181
			-0.153333 -0.373318 -0.914944
			-0.001057 -0.518526 -0.855061
			-0.050362 -0.688795 -0.723205
			 0.149590 -0.285141 -0.946741
			 0.055610 -0.313808 -0.947857
			 0.391348 -0.299811 -0.870035
			-0.111569 -0.563699 -0.818411
			 0.169937  0.252339  0.952600
			 0.713608  0.127690  0.688809
			-0.450899  0.369783  0.812373
			-0.912397  0.214965  0.348314
			-0.970540  0.192766  0.144544
			-0.964953  0.209034 -0.158651
			-0.979216  0.185020 -0.083094
			-0.899360  0.254369  0.355595
			-0.986041  0.157454  0.054133
			-0.979622  0.199123 -0.026277
			-0.965874  0.219495 -0.137511
			-0.959745  0.072837  0.271263
			-0.582740  0.302351  0.754319
			 0.051757 -0.451468 -0.890785
			-0.661386 -0.380958 -0.646096
			-0.877129  0.099115 -0.469915
			-0.786933  0.179917 -0.590225
			-0.769659  0.074857 -0.634052
			 0.990945 -0.132129 -0.023859
			 0.936913 -0.308476 -0.164429
			 0.993241 -0.079587 -0.084491
			 0.682364  0.422745  0.596377
			 0.191489  0.607929  0.770554
			 0.608379  0.469050  0.640209
			 0.933456 -0.247715 -0.259415
			 0.950566 -0.258586 -0.171922
			 0.782732 -0.340551 -0.520919
			 0.915691 -0.293194 -0.274857
			 0.398320 -0.354601 -0.845931
			 0.106513 -0.200059 -0.973977
			 0.454907 -0.071418 -0.887671
			-0.169036 -0.240210 -0.955890
			-0.310797 -0.199019 -0.929407
			 0.035240 -0.629915 -0.775864
			-0.373178 -0.664907 -0.647021
			-0.229349 -0.610550 -0.758042
			-0.300139 -0.454201 -0.838819
			 0.278607 -0.413400 -0.866879
			 0.194523 -0.230152 -0.953515
			-0.399992 -0.646714 -0.649436
			 0.593714  0.510291  0.622178
			 0.298259  0.563694  0.770254
			 0.212887  0.506816  0.835355
			-0.859347  0.356668  0.366484
			-0.756512  0.136316 -0.639616
			-0.787048  0.611887 -0.078426
			-0.920041  0.303071 -0.248338
			-0.713573  0.696098  0.079136
			-0.927648  0.263512  0.264633
			-0.830131  0.497626  0.251496
			-0.781321  0.583180 -0.222350
			-0.896194  0.443651  0.003268
			-0.816850  0.572316  0.072181
			-0.707966  0.359742  0.607758
			-0.015047  0.770039  0.637819
			-0.460960 -0.299114 -0.835492
			-0.419499  0.213913 -0.882192
			-0.403784  0.135364 -0.904785
			 0.976226  0.073940  0.203755
			 0.940516 -0.311959 -0.134576
			 0.615811  0.466038  0.635283
			 0.304777  0.497066  0.812426
			 0.562154  0.793593  0.232796
			 0.739954  0.579952  0.340768
			 0.920653 -0.277020 -0.275061
			 0.524048 -0.478125 -0.704820
			 0.184635 -0.357286 -0.915564
			 0.962719  0.166011 -0.213572
			 0.794945 -0.154869 -0.586581
			-0.360581 -0.151488 -0.920344
			 0.438924 -0.160676 -0.884041
			 0.017950 -0.017822 -0.999680
			-0.336927 -0.086527 -0.937546
			-0.298316 -0.377646 -0.876579
			-0.411005 -0.220332 -0.884606
			-0.273234 -0.569782 -0.775042
			-0.287758 -0.547207 -0.785977
			-0.273355 -0.363970 -0.890395
			-0.377827 -0.238163 -0.894721
			 0.392671 -0.389817 -0.832978
			 0.322584 -0.144607 -0.935430
			-0.376584 -0.286560 -0.880947
			-0.723018  0.464398  0.511449
			-0.198304  0.072622 -0.977446
			-0.598522  0.073072 -0.797767
			-0.789782  0.431378 -0.436071
			-0.306380  0.946279  0.103377
			-0.264604  0.957673 -0.113342
			-0.805421  0.590844  0.046905
			-0.476749  0.879032  0.003591
			-0.712221  0.560464  0.422636
			-0.597935  0.784548 -0.164189
			-0.345433  0.923096 -0.169028
			-0.457670  0.889099  0.006462
			 0.604639  0.670026  0.430671
			 0.976608  0.172919 -0.127813
			 0.873840  0.235729 -0.425248
			 0.677172  0.407951  0.612383
			 0.710421  0.698298 -0.087650
			 0.271976  0.960037 -0.066015
			-0.104980  0.942072 -0.318559
			 0.275079  0.891518 -0.359900
			 0.798137  0.576461 -0.175126
			-0.368162 -0.329956 -0.869244
			-0.109452 -0.307055 -0.945377
			 0.378532  0.824971 -0.419687
			 0.744692  0.622296 -0.241207
			 0.262861  0.478991 -0.837539
			-0.354591 -0.040226 -0.934156
			 0.565753 -0.172374 -0.806356
			 0.622562 -0.382968 -0.682460
			-0.370589 -0.099019 -0.923504
			-0.316064 -0.137579 -0.938710
			-0.183523 -0.177725 -0.966816
			-0.640624  0.745913  0.182250
			-0.438149  0.014501 -0.898786
			-0.704456  0.657415 -0.267485
			-0.722384  0.166898 -0.671048
			-0.566634 -0.011404 -0.823891
			-0.461315  0.026466 -0.886842
			-0.220889  0.974105 -0.048237
			-0.249241  0.968249 -0.019303
			-0.120304  0.991335 -0.052747
			-0.378669  0.915592 -0.135281
			-0.434074  0.898480  0.065683
			-0.249228  0.944912 -0.212194
			-0.351262  0.900128 -0.257652
			 0.787579  0.341497 -0.512933
			 0.267275  0.794883 -0.544724
			-0.086971  0.978121 -0.188986
			 0.381459  0.689083 -0.616161
			-0.285114 -0.501047 -0.817106
			-0.332116  0.096683 -0.938271
			-0.440643 -0.185618 -0.878282
			-0.224037  0.609461 -0.760503
			-0.050600  0.858867 -0.509694
			-0.304920  0.304461 -0.902401
			-0.234973  0.184893 -0.954255
			-0.486395 -0.037474 -0.872935
			-0.219688  0.679149 -0.700353
			-0.647930 -0.131169 -0.750321
			 0.295685  0.796343 -0.527644
		</DataArray>
	</PointData>
	<Points>
		<DataArray type="Float32" NumberOfComponents="3" format="ascii">
			 0.004308 -0.076503  0.041216
			 0.000487 -0.073311  0.039273
			 0.002313 -0.076395  0.040445
			 0.001634 -0.082439  0.041233
			 0.002466 -0.074535  0.040061
			 0.003907 -0.079822  0.041639
			 0.003748 -0.074994  0.040668
			 0.004226 -0.075570  0.040928
			 0.004981 -0.077351  0.041260
			 0.004708 -0.076027  0.040516
			 0.000647 -0.074696  0.039565
			-0.000742 -0.068209  0.036139
			-0.002739 -0.071102  0.039892
			 0.000437 -0.075039  0.040039
			-0.001300 -0.072787  0.040695
			 0.001566 -0.074085  0.038255
			 0.000427 -0.072184  0.035461
			-0.000648 -0.081851  0.039940
			-0.000105 -0.083745  0.039970
			 0.000928 -0.076493  0.040225
			 0.000736 -0.078029  0.040156
			 0.000597 -0.084103  0.040412
			 0.003445 -0.082326  0.041294
			 0.001962 -0.084410  0.040507
			 0.002127 -0.074756  0.038120
			 0.003720 -0.074691  0.039961
			 0.005116 -0.078468  0.041208
			 0.004572 -0.075768  0.039769
			 0.005112 -0.077002  0.040544
			-0.003998 -0.063061  0.036503
			-0.001736 -0.058263  0.034060
			-0.001192 -0.061149  0.033045
			-0.003538 -0.072223  0.039934
			-0.002316 -0.072769  0.041182
			 0.000086 -0.077690  0.039748
			-0.001068 -0.074128  0.040957
			 0.001651 -0.078564  0.035288
			 0.001250 -0.077732  0.034569
			-0.000024 -0.075561  0.032237
			-0.002937 -0.064993  0.030817
			-0.000811 -0.072839  0.032217
			-0.001062 -0.083438  0.039636
			-0.000859 -0.080489  0.039595
			-0.001189 -0.081170  0.039773
			-0.001606 -0.082131  0.039768
			-0.000218 -0.084374  0.040370
			 0.000606 -0.084841  0.039766
			 0.003204 -0.084102  0.039486
			 0.005058 -0.080781  0.040281
			 0.001861 -0.085138  0.039509
			 0.001301 -0.085087  0.039800
			 0.005336 -0.078247  0.039136
			 0.005457 -0.079103  0.038851
			 0.004822 -0.080752  0.037073
			 0.005293 -0.077889  0.040437
			-0.006375 -0.061113  0.034501
			-0.004060 -0.057967  0.034561
			-0.001880 -0.050721  0.032392
			-0.001493 -0.053446  0.032047
			-0.002334 -0.053195  0.033159
			-0.003772 -0.060075  0.029371
			-0.002983 -0.073869  0.041253
			-0.004396 -0.075646  0.039646
			-0.002016 -0.074205  0.041655
			-0.000739 -0.079142  0.039802
			-0.001988 -0.076628  0.040881
			 0.002089 -0.079981  0.034464
			 0.001417 -0.079483  0.033352
			 0.000968 -0.077103  0.031397
			-0.000415 -0.075584  0.031448
			-0.006937 -0.065475  0.029017
			-0.005538 -0.071640  0.029380
			-0.002664 -0.075949  0.030627
			-0.001068 -0.084339  0.040084
			-0.001860 -0.083874  0.039432
			-0.000999 -0.079977  0.039968
			-0.002022 -0.079438  0.040513
			-0.002351 -0.080623  0.040000
			-0.002481 -0.082356  0.039429
			 0.000354 -0.085725  0.038700
			 0.003839 -0.084384  0.037272
			 0.005001 -0.081753  0.039889
			 0.004727 -0.083020  0.038617
			 0.001615 -0.085692  0.038360
			 0.003583 -0.084329  0.036288
			 0.001684 -0.082735  0.033572
			-0.007731 -0.054533  0.029405
			-0.006699 -0.054112  0.031688
			-0.007484 -0.065409  0.029567
			-0.007352 -0.070367  0.032129
			-0.005448 -0.048183  0.031471
			-0.006590 -0.051542  0.031210
			-0.001698 -0.048343  0.031023
			-0.002163 -0.047924  0.031120
			-0.002627 -0.050487  0.032343
			-0.001389 -0.049083  0.028411
			-0.004686 -0.052660  0.026414
			-0.006154 -0.057855  0.027198
			-0.003225 -0.076955  0.040352
			-0.004631 -0.080527  0.039328
			-0.002920 -0.079829  0.040617
			-0.005749 -0.082623  0.035792
			-0.005685 -0.076433  0.036100
			 0.001508 -0.079328  0.032377
			 0.000957 -0.079060  0.031232
			 0.000270 -0.077873  0.030555
			-0.000918 -0.076391  0.031154
			-0.007163 -0.070578  0.029937
			-0.007689 -0.050028  0.026065
			-0.005154 -0.073669  0.029660
			-0.006317 -0.074007  0.029640
			-0.003471 -0.077232  0.030542
			-0.005805 -0.076691  0.029411
			-0.002057 -0.085749  0.037092
			-0.003347 -0.083925  0.038118
			-0.002783 -0.081420  0.039752
			-0.003482 -0.082745  0.038935
			 0.000210 -0.086212  0.035133
			-0.000540 -0.084835  0.033021
			 0.001077 -0.083018  0.032891
			 0.000828 -0.081090  0.031761
			-0.007944 -0.049595  0.028057
			-0.007409 -0.075791  0.032154
			-0.007200 -0.074665  0.029837
			-0.002598 -0.047814  0.031635
			-0.004263 -0.041105  0.031212
			-0.005250 -0.041221  0.030948
			-0.006322 -0.041396  0.030023
			-0.007164 -0.046064  0.029011
			-0.007541 -0.046558  0.027386
			-0.001457 -0.045903  0.030208
			-0.002063 -0.042991  0.030905
			-0.001780 -0.045258  0.030638
			-0.000861 -0.044128  0.027739
			-0.002089 -0.043455  0.023571
			-0.004203 -0.047800  0.024604
			-0.005049 -0.047719  0.024197
			-0.004690 -0.081592  0.038652
			-0.004258 -0.084938  0.034447
			-0.005015 -0.083785  0.032798
			-0.005822 -0.082479  0.032869
			-0.006053 -0.080097  0.033584
			-0.007059 -0.079712  0.032132
			-0.000955 -0.079396  0.030792
			-0.002427 -0.079646  0.031487
			-0.001609 -0.080493  0.031198
			-0.003039 -0.079125  0.031219
			-0.006699 -0.047295  0.025103
			-0.006977 -0.075076  0.029573
			-0.004791 -0.079662  0.031327
			-0.005472 -0.079116  0.030484
			-0.007025 -0.076803  0.029674
			-0.003020 -0.085454  0.034132
			-0.001910 -0.085409  0.033426
			-0.001725 -0.082726  0.031479
			-0.001261 -0.081070  0.030796
			-0.008026 -0.077184  0.031358
			-0.007679 -0.076956  0.030374
			-0.004321 -0.036142  0.031349
			-0.005426 -0.037867  0.031317
			-0.003450 -0.040858  0.031106
			-0.005608 -0.036634  0.030883
			-0.007274 -0.038067  0.027480
			-0.006670 -0.043803  0.026115
			-0.007115 -0.041612  0.026385
			-0.005450 -0.044698  0.023617
			-0.001057 -0.043597  0.029918
			-0.000889 -0.041656  0.029773
			-0.001058 -0.038279  0.029377
			-0.002596 -0.040878  0.030703
			-0.001143 -0.040059  0.021628
			 0.000461 -0.040463  0.027582
			 0.000241 -0.040249  0.028869
			-0.003335 -0.041762  0.021378
			-0.004300 -0.045393  0.023027
			-0.004445 -0.043251  0.022170
			-0.005245 -0.082035  0.032286
			-0.002168 -0.080464  0.031648
			-0.005765 -0.080961  0.031916
			-0.006106 -0.080692  0.032489
			-0.006453 -0.079980  0.031611
			-0.007324 -0.079227  0.031562
			-0.004851 -0.045125  0.023089
			-0.006712 -0.079321  0.031086
			-0.007723 -0.077695  0.030419
			-0.003275 -0.039260  0.030966
			-0.003301 -0.037806  0.031152
			-0.003052 -0.036302  0.031233
			-0.005576 -0.035636  0.030897
			-0.004914 -0.035473  0.031700
			-0.006651 -0.035047  0.028099
			-0.007404 -0.037749  0.025495
			-0.005766 -0.041945  0.022841
			-0.007007 -0.039918  0.022383
			-0.004833 -0.043284  0.022642
			 0.001089 -0.037166  0.027696
			-0.002044 -0.036166  0.029814
			-0.000766 -0.036692  0.028987
			-0.002384 -0.039309  0.030283
			 0.000746 -0.035645  0.028156
			-0.002195 -0.037966  0.029905
			 0.001200 -0.037744  0.022088
			-0.000666 -0.036654  0.018893
			-0.001305 -0.038550  0.020297
			-0.002112 -0.040251  0.021150
			 0.000781 -0.037187  0.020697
			 0.002062 -0.036329  0.025906
			 0.002095 -0.036456  0.024794
			-0.004297 -0.042096  0.021398
			-0.004474 -0.039941  0.021062
			-0.002969 -0.040090  0.021018
			-0.004864 -0.042154  0.021599
			-0.003244 -0.035504  0.031712
			-0.005974 -0.034894  0.030402
			-0.005248 -0.034751  0.031877
			-0.007373 -0.033771  0.024772
			-0.007145 -0.034899  0.026000
			-0.007670 -0.035548  0.025286
			-0.006686 -0.033050  0.027759
			-0.006434 -0.031822  0.028972
			-0.005108 -0.042147  0.022542
			-0.007108 -0.038542  0.020332
			-0.006129 -0.040440  0.020998
			-0.007684 -0.035459  0.020687
			 0.001846 -0.035006  0.026407
			-0.001395 -0.035074  0.028790
			 0.001781 -0.033037  0.026233
			 0.000216 -0.034419  0.027463
			 0.002271 -0.035280  0.024750
			 0.001543 -0.035783  0.021322
			 0.000817 -0.036294  0.020113
			-0.001626 -0.035367  0.018003
			 0.000011 -0.036495  0.019162
			-0.000940 -0.035950  0.018320
			-0.002087 -0.038633  0.020677
			-0.002455 -0.035338  0.018293
			-0.002864 -0.036048  0.018520
			-0.002611 -0.037482  0.019915
			-0.005374 -0.039778  0.020797
			-0.004334 -0.038384  0.021032
			-0.005429 -0.038026  0.020378
			-0.003239 -0.038650  0.021112
			-0.003967 -0.033889  0.031932
			-0.002814 -0.034217  0.031542
			-0.005260 -0.033842  0.031705
			-0.007694 -0.034823  0.025128
			-0.006476 -0.031732  0.025603
			-0.006661 -0.030160  0.021296
			-0.007945 -0.033665  0.022140
			-0.006784 -0.031145  0.024274
			-0.007014 -0.030890  0.023388
			-0.006463 -0.030540  0.025465
			-0.006671 -0.030442  0.027368
			-0.006676 -0.030426  0.028362
			-0.005643 -0.031643  0.030126
			-0.006426 -0.038306  0.019888
			-0.007078 -0.037433  0.019514
			-0.007269 -0.035684  0.019273
			-0.006723 -0.034700  0.019252
			-0.006944 -0.033892  0.019319
			 0.001882 -0.033002  0.025320
			 0.001724 -0.032880  0.024175
			 0.001530 -0.032867  0.023139
			-0.000522 -0.032678  0.026954
			 0.001030 -0.030962  0.024003
			 0.002337 -0.030267  0.023560
			 0.002162 -0.031673  0.023934
			 0.001318 -0.033479  0.020340
			 0.000504 -0.033635  0.017959
			 0.000829 -0.033208  0.019041
			-0.000429 -0.035530  0.018215
			-0.001807 -0.034627  0.017687
			-0.001765 -0.034077  0.017928
			-0.003119 -0.035317  0.018285
			-0.002493 -0.034397  0.018111
			-0.003149 -0.036971  0.019101
			-0.003807 -0.037756  0.020247
			-0.004466 -0.037407  0.020440
			-0.005136 -0.036150  0.019547
			-0.005647 -0.036148  0.019601
			-0.006424 -0.035639  0.018586
			-0.003475 -0.037567  0.019772
			-0.002698 -0.033082  0.030747
			-0.003919 -0.032800  0.031373
			-0.003982 -0.031387  0.030431
			-0.006463 -0.030133  0.024211
			-0.006148 -0.031552  0.019164
			-0.006569 -0.028578  0.020796
			-0.006596 -0.029226  0.021760
			-0.006259 -0.028821  0.021719
			-0.006845 -0.029950  0.023484
			-0.005914 -0.029471  0.024355
			-0.005753 -0.028245  0.026648
			-0.005452 -0.028572  0.024757
			-0.006406 -0.028355  0.027916
			-0.006315 -0.028953  0.028723
			-0.004512 -0.027833  0.028877
			-0.006987 -0.036587  0.019014
			-0.006141 -0.034040  0.018674
			-0.006156 -0.033202  0.018882
			 0.002750 -0.030672  0.023207
			 0.002335 -0.031124  0.022051
			-0.000344 -0.030353  0.024062
			 0.000693 -0.029111  0.023165
			 0.000578 -0.027794  0.022072
			 0.002275 -0.029574  0.022955
			 0.001919 -0.032090  0.020055
			 0.000606 -0.033017  0.017554
			-0.000258 -0.033738  0.017493
			 0.001418 -0.031513  0.018600
			 0.001296 -0.031787  0.017307
			-0.001215 -0.033835  0.017703
			-0.001807 -0.033622  0.017602
			-0.001564 -0.033305  0.018052
			-0.003414 -0.034651  0.018389
			-0.003597 -0.036095  0.018586
			-0.002907 -0.033660  0.017907
			-0.004333 -0.036409  0.019385
			-0.004756 -0.035952  0.019058
			-0.005135 -0.035195  0.019102
			-0.004784 -0.035050  0.018706
			-0.005661 -0.035312  0.019096
			-0.005687 -0.034443  0.018660
			-0.003983 -0.035527  0.018532
			-0.006521 -0.029378  0.023533
			-0.005104 -0.033383  0.018785
			-0.005961 -0.029613  0.019392
			-0.006518 -0.029057  0.020036
			-0.005875 -0.028411  0.021512
			-0.005905 -0.028669  0.020794
			-0.006711 -0.029118  0.022872
			-0.005740 -0.028729  0.022259
			-0.006052 -0.029138  0.023753
			-0.005023 -0.027926  0.024425
			-0.004485 -0.027347  0.025465
			-0.005419 -0.027840  0.027389
			-0.001874 -0.027124  0.025310
			 0.002627 -0.030240  0.022681
			 0.002069 -0.030868  0.020338
			-0.000400 -0.027314  0.022694
			 0.001878 -0.028991  0.022419
			-0.000198 -0.027030  0.022177
			-0.001793 -0.027365  0.021378
			-0.000624 -0.027830  0.020181
			 0.002330 -0.029496  0.022392
			-0.000652 -0.032495  0.017212
			-0.000295 -0.032176  0.016899
			-0.002093 -0.029078  0.018353
			 0.001283 -0.031065  0.017695
			 0.000066 -0.030706  0.016931
			-0.003793 -0.030717  0.018055
			-0.001764 -0.032817  0.017479
			-0.001665 -0.032114  0.017880
			-0.003615 -0.033702  0.018518
			-0.004010 -0.032865  0.018396
			-0.005150 -0.034216  0.018859
			-0.006443 -0.028756  0.023160
			-0.004878 -0.032464  0.018504
			-0.006143 -0.028483  0.019853
			-0.005816 -0.028822  0.019252
			-0.005173 -0.029098  0.018677
			-0.004988 -0.031033  0.018828
			-0.004760 -0.028227  0.020981
			-0.004917 -0.028259  0.021689
			-0.004681 -0.028187  0.020210
			-0.005337 -0.028313  0.022746
			-0.005386 -0.028286  0.023531
			-0.004110 -0.027987  0.024056
			-0.002631 -0.027466  0.023526
			 0.002329 -0.030142  0.021709
			-0.001449 -0.028199  0.019066
			-0.002818 -0.027949  0.020533
			-0.000298 -0.028124  0.019813
			-0.001530 -0.031802  0.017422
			-0.001497 -0.030810  0.017043
			-0.001625 -0.031354  0.017125
			-0.002848 -0.028967  0.018122
			-0.003653 -0.028757  0.018882
			-0.003200 -0.029359  0.018359
			-0.004619 -0.029016  0.018514
			-0.004327 -0.031608  0.018381
			-0.005159 -0.028289  0.018862
			-0.004769 -0.030492  0.018679
			-0.001288 -0.028091  0.019584
		</DataArray>
	</Points>
			<Polys>
				<DataArray type="Int32" Name="connectivity" format="ascii">
					0 1 2 
					2 3 0 
					1 0 4 
					3 5 0 
					0 6 4 
					7 6 0 
					0 5 8 
					7 0 9 
					8 9 0 
					2 1 10 
					11 12 1 
					1 13 10 
					14 13 1 
					12 14 1 
					1 4 15 
					15 16 1 
					1 16 11 
					17 18 2 
					2 19 20 
					2 20 17 
					2 10 19 
					2 18 3 
					18 21 3 
					22 3 23 
					5 3 22 
					3 21 23 
					24 4 25 
					4 6 25 
					4 24 15 
					5 26 8 
					22 26 5 
					7 25 6 
					25 7 27 
					27 7 9 
					26 28 8 
					8 28 9 
					28 27 9 
					13 19 10 
					12 11 29 
					30 29 11 
					31 30 11 
					11 16 31 
					12 32 33 
					14 12 33 
					29 32 12 
					34 19 13 
					13 14 35 
					34 13 35 
					35 14 33 
					24 16 15 
					24 36 16 
					37 38 16 
					16 36 37 
					16 39 31 
					39 16 40 
					16 38 40 
					41 18 17 
					17 42 43 
					42 17 20 
					43 44 17 
					44 41 17 
					45 21 18 
					41 45 18 
					34 20 19 
					34 42 20 
					23 21 46 
					45 46 21 
					47 22 23 
					26 22 48 
					47 48 22 
					49 23 50 
					49 47 23 
					50 23 46 
					24 25 27 
					24 27 51 
					52 24 51 
					52 53 24 
					36 24 53 
					48 54 26 
					28 26 54 
					27 28 51 
					51 28 54 
					55 32 29 
					56 29 30 
					29 56 55 
					57 30 58 
					59 30 57 
					30 59 56 
					30 31 58 
					60 58 31 
					39 60 31 
					33 32 61 
					32 55 62 
					32 62 61 
					35 33 63 
					33 61 63 
					64 42 34 
					65 34 63 
					34 65 64 
					63 34 35 
					36 66 67 
					36 53 66 
					37 36 67 
					37 68 38 
					67 68 37 
					38 69 40 
					38 68 69 
					70 60 39 
					71 39 72 
					71 70 39 
					72 39 40 
					69 72 40 
					73 45 41 
					74 73 41 
					44 74 41 
					43 42 75 
					42 64 75 
					76 43 65 
					65 43 75 
					77 43 76 
					43 77 44 
					78 74 44 
					77 78 44 
					45 73 46 
					50 46 79 
					73 79 46 
					49 80 47 
					48 47 81 
					82 81 47 
					80 82 47 
					51 48 52 
					51 54 48 
					81 52 48 
					79 49 50 
					83 49 79 
					83 80 49 
					82 53 52 
					82 52 81 
					84 53 82 
					85 53 84 
					53 85 66 
					86 55 87 
					55 86 88 
					89 62 55 
					88 89 55 
					56 87 55 
					59 90 56 
					56 91 87 
					56 90 91 
					58 92 57 
					93 57 92 
					57 93 94 
					59 57 94 
					58 95 92 
					96 58 60 
					96 95 58 
					90 59 94 
					97 96 60 
					70 97 60 
					65 61 98 
					61 65 63 
					98 61 62 
					99 100 62 
					101 99 62 
					98 62 100 
					62 89 102 
					62 102 101 
					65 75 64 
					65 98 100 
					100 76 65 
					85 67 66 
					103 68 67 
					85 103 67 
					68 104 105 
					103 104 68 
					105 69 68 
					72 69 106 
					106 69 105 
					107 70 71 
					88 108 70 
					70 107 88 
					70 108 97 
					72 109 71 
					71 109 110 
					107 71 110 
					106 111 72 
					72 111 112 
					72 112 109 
					113 73 74 
					113 79 73 
					114 74 78 
					114 113 74 
					100 77 76 
					115 77 100 
					115 78 77 
					116 114 78 
					115 116 78 
					79 117 83 
					113 117 79 
					117 80 83 
					84 82 80 
					84 80 117 
					118 85 84 
					117 118 84 
					85 118 119 
					85 120 103 
					120 85 119 