<?xml version="1.0"?>
<VTKFile type="PolyData" version="0.1" byte_order="LittleEndian" compressor="vtkZLibDataCompressor">
	<PolyData>
		<Piece NumberOfPoints="347" NumberOfVerts="0" NumberOfLines="0" NumberOfStrips="0" NumberOfPolys="694">
		<PointData Normals="Normals">
		<DataArray type="Float32" Name="Normals" NumberOfComponents="3" format="ascii">
			-0.314731  0.039204 -0.948371
			-0.182632  0.175514 -0.967388
			-0.185558  0.142853 -0.972194
			-0.443801 -0.075040 -0.892978
			 0.112409 -0.036670 -0.992985
			 0.262817  0.113413 -0.958157
			 0.487745 -0.055258 -0.871236
			 0.154748  0.809547 -0.566293
			 0.485938  0.534524 -0.691482
			 0.626709  0.481394 -0.612777
			 0.093748  0.536022 -0.838983
			 0.295998  0.132284 -0.945984
			 0.543135  0.238251 -0.805134
			 0.160885 -0.089359 -0.982920
			-0.081784 -0.375399 -0.923248
			-0.492420 -0.266658 -0.828502
			 0.034708 -0.183253 -0.982453
			 0.539730 -0.048542 -0.840437
			 0.087023 -0.004686 -0.996195
			-0.023619  0.415001 -0.909514
			-0.311768 -0.217003 -0.925046
			 0.084736  0.018434 -0.996233
			 0.039080  0.394451 -0.918086
			 0.014652 -0.116798 -0.993048
			 0.499823  0.861309 -0.091232
			 0.668700  0.738294 -0.088109
			 0.417856  0.907142  0.049903
			 0.162528  0.446947 -0.879672
			 0.811219  0.335035 -0.479243
			 0.886488  0.457367 -0.070389
			 0.855325  0.454226  0.249193
			 0.919901  0.329147 -0.213177
			 0.668538 -0.132226 -0.731829
			 0.879811  0.067445 -0.470514
			 0.560053 -0.404625 -0.722924
			 0.197939 -0.663643 -0.721386
			-0.454321 -0.116268 -0.883218
			-0.619680 -0.567140 -0.542539
			-0.339519 -0.367770 -0.865721
			-0.126683 -0.357829 -0.925154
			-0.077235 -0.723790 -0.685684
			-0.597645 -0.051714 -0.800091
			-0.622388  0.147992 -0.768590
			-0.562287 -0.138982 -0.815180
			 0.693191  0.642087  0.327431
			 0.029895  0.230546 -0.972602
			 0.770300  0.226940 -0.595933
			 0.968847  0.161287  0.187943
			 0.960268  0.254709  0.114055
			 0.881534  0.304742  0.360596
			 0.948204  0.119608  0.294284
			 0.984478  0.141573 -0.103730
			 0.932527 -0.319204 -0.168825
			 0.601311 -0.763818 -0.234534
			 0.072764 -0.846225 -0.527834
			-0.837407 -0.098277 -0.537672
			-0.746496 -0.267278 -0.609348
			-0.054352 -0.932267 -0.357665
			-0.280164 -0.951316 -0.128477
			-0.637726 -0.728772 -0.249392
			-0.883443 -0.395303 -0.251523
			-0.755547  0.001541 -0.655092
			 0.722220  0.143090 -0.676701
			-0.018014  0.146590 -0.989033
			-0.116371  0.154633 -0.981094
			-0.805020  0.005348 -0.593223
			 0.509359  0.109024  0.853620
			 0.754039  0.247532  0.608402
			 0.865539 -0.041319  0.499134
			 0.986889  0.092937 -0.131956
			 0.549197  0.005125  0.835677
			 0.924097  0.078490  0.374011
			 0.827877 -0.152264  0.539848
			 0.820168 -0.040691  0.570673
			 0.830010  0.384716  0.403827
			 0.863823  0.460671  0.203943
			 0.917466 -0.265311  0.296422
			 0.776774 -0.617027  0.126092
			 0.475694 -0.878952  0.034039
			-0.912571 -0.285818 -0.292440
			-0.878629 -0.175440 -0.444107
			-0.983212 -0.073204 -0.167136
			 0.180787 -0.979531  0.088520
			-0.612908 -0.789287  0.037016
			 0.202639 -0.931639  0.301641
			-0.329061 -0.888174  0.320728
			-0.606099 -0.536822  0.586913
			-0.876852 -0.372202  0.304296
			 0.124852  0.063679 -0.990130
			 0.788064  0.084566 -0.609757
			-0.166756  0.098389 -0.981077
			-0.348195  0.104738 -0.931553
			-0.126923 -0.023580 -0.991632
			-0.576645 -0.006488 -0.816969
			-0.977505 -0.116572  0.175773
			-0.977110 -0.095596 -0.190046
			-0.979499 -0.101890 -0.173784
			-0.013896  0.151682  0.988332
			 0.272973  0.018977  0.961835
			 0.410286  0.415372  0.811870
			 0.953628 -0.088677  0.287629
			 0.738323 -0.182254  0.649356
			 0.559492 -0.124980  0.819359
			 0.981192 -0.085467 -0.173083
			 0.648781  0.101784 -0.754137
			-0.081934 -0.069206  0.994232
			 0.680059 -0.143250  0.719027
			 0.553398 -0.033122  0.832258
			 0.732148 -0.437945  0.521694
			 0.489588 -0.358660  0.794775
			 0.383971 -0.583206  0.715847
			 0.142237  0.182772  0.972812
			 0.610386 -0.708985  0.353228
			 0.494467 -0.856994  0.145134
			-0.845948 -0.515282  0.137317
			-0.833659 -0.544744 -0.090924
			-0.930981 -0.028601 -0.363946
			-0.896190 -0.268333 -0.353327
			-0.996795  0.051375  0.061321
			-0.750527  0.013623  0.660700
			-0.050977 -0.812495  0.580735
			-0.286997 -0.524925  0.801303
			-0.148504 -0.360778  0.920753
			-0.176883 -0.214872  0.960491
			-0.470167 -0.450470  0.758960
			-0.069030  0.003621 -0.997608
			 0.202786  0.014364 -0.979118
			 0.174861 -0.098184 -0.979685
			-0.130521 -0.217417 -0.967313
			-0.637255 -0.132905 -0.759106
			-0.589058 -0.097764  0.802155
			-0.811825 -0.154482  0.563094
			-0.946774 -0.242269  0.211956
			-0.735631 -0.267206  0.622453
			-0.984126 -0.116965  0.133471
			-0.917563 -0.151477 -0.367605
			-0.824600  0.213515  0.523876
			 0.042150 -0.095192  0.994566
			-0.420730  0.107133  0.900838
			-0.228029 -0.175832  0.957646
			-0.171351  0.060929  0.983324
			 0.251665 -0.230453  0.939977
			 0.967862 -0.247249  0.045945
			 0.706147 -0.228151  0.670301
			 0.437590 -0.236593  0.867490
			-0.046970 -0.205528  0.977523
			 0.612758 -0.114175 -0.781979
			-0.075619 -0.166069  0.983211
			-0.326709 -0.016952  0.944973
			-0.352593 -0.289365  0.889914
			-0.457720 -0.594807  0.660830
			-0.778879 -0.530201  0.335013
			-0.997240 -0.067735 -0.030387
			-0.937197 -0.346383  0.040993
			 0.055690 -0.414571  0.908311
			-0.316842 -0.235068  0.918887
			 0.328271 -0.197966 -0.923606
			 0.501234 -0.128628 -0.855698
			 0.035148 -0.242612 -0.969487
			 0.335971 -0.109000 -0.935544
			-0.655458 -0.224804 -0.720998
			-0.807272 -0.349434  0.475612
			-0.571307 -0.541913  0.616391
			 0.001030 -0.448658  0.893703
			-0.977554 -0.188051 -0.094997
			-0.974494 -0.137115  0.177657
			-0.794595 -0.101692  0.598563
			-0.717440 -0.067607  0.693332
			-0.841909 -0.293025 -0.453128
			-0.925129 -0.185751 -0.331109
			-0.883872 -0.322434 -0.338830
			-0.855256  0.041643  0.516530
			-0.033493 -0.461531  0.886492
			-0.622371 -0.263987  0.736862
			-0.724372 -0.130529  0.676939
			 0.865380 -0.203783 -0.457811
			 0.871836 -0.255317  0.417990
			 0.957492 -0.217833 -0.189096
			 0.532223 -0.323976  0.782163
			 0.281499 -0.224461  0.932939
			 0.022003 -0.118069  0.992761
			-0.289806 -0.548084  0.784612
			-0.713798 -0.426814  0.555267
			 0.370389 -0.251730 -0.894116
			 0.322867 -0.009914 -0.946392
			-0.190395 -0.356965 -0.914508
			-0.678424 -0.392250 -0.621193
			 0.694660 -0.118102 -0.709577
			-0.892554 -0.260722 -0.367930
			-0.118045 -0.338425  0.933560
			-0.970030 -0.242367  0.017321
			-0.994996 -0.053146 -0.084602
			-0.957316 -0.156880 -0.242765
			-0.504918 -0.213905  0.836243
			-0.864174 -0.367806  0.343398
			-0.289367  0.063799  0.955090
			-0.133686  0.144363  0.980453
			-0.819445 -0.305136 -0.485183
			-0.861367 -0.264098 -0.433933
			 0.975960 -0.126159 -0.177724
			 0.633915 -0.212306  0.743692
			 0.573129 -0.079063  0.815642
			 0.903790  0.070005  0.422212
			 0.999204 -0.039582  0.004978
			-0.056277 -0.156717  0.986039
			 0.306891 -0.109992  0.945367
			-0.078766  0.212343  0.974016
			-0.295489  0.003331  0.955340
			-0.220212 -0.284038 -0.933182
			 0.280062 -0.289079 -0.915423
			 0.448461 -0.079737 -0.890239
			 0.541610  0.319065 -0.777725
			 0.324823  0.372711 -0.869239
			 0.345802  0.251863 -0.903873
			 0.659304  0.098126 -0.745445
			-0.786156 -0.266039 -0.557837
			 0.981281 -0.181774 -0.063606
			 0.810380  0.058234 -0.583003
			-0.895390 -0.140373 -0.422578
			-0.929632 -0.077898 -0.360160
			-0.884067  0.025694 -0.466653
			-0.838332 -0.276574  0.469794
			-0.932812 -0.046455  0.357358
			-0.947165  0.122853  0.296287
			-0.891618  0.115232 -0.437880
			-0.949388  0.308920  0.056844
			 0.195927  0.091034  0.976384
			-0.312229 -0.260978  0.913457
			 0.023710  0.288991  0.957038
			 0.965975 -0.201621  0.161993
			 0.991406 -0.079844  0.103633
			 0.284092 -0.137469  0.948891
			 0.278068  0.135585  0.950944
			 0.146768  0.169163  0.974599
			 0.222288  0.093212  0.970515
			 0.953984 -0.109485  0.279154
			 0.948031 -0.113403  0.297282
			 0.836680 -0.134823  0.530838
			 0.196339  0.025123  0.980214
			-0.099510  0.022672  0.994778
			-0.354291  0.014855  0.935017
			-0.250815  0.055431  0.966447
			-0.605347 -0.046118 -0.794624
			 0.214218 -0.061964 -0.974819
			 0.411182 -0.208384 -0.887415
			 0.308635  0.827029 -0.469860
			 0.220086  0.299882 -0.928242
			 0.069546  0.699954 -0.710794
			 0.289864  0.888079 -0.356783
			-0.933920  0.148263 -0.325286
			 0.955275 -0.166865  0.244141
			 0.721614  0.395005 -0.568545
			 0.994695 -0.085025 -0.057910
			-0.937550  0.038285 -0.345738
			-0.919019  0.263882 -0.292865
			-0.719996  0.256720 -0.644749
			-0.271516  0.076253  0.959408
			-0.310832  0.026975  0.950082
			-0.674603  0.369581  0.639000
			-0.673708  0.666308 -0.319611
			-0.630017  0.775288 -0.044801
			-0.735857  0.577853 -0.352989
			-0.549811  0.360218 -0.753626
			 0.421166  0.206151  0.883244
			 0.526702  0.044958  0.848861
			 0.331234  0.062524  0.941475
			-0.468380 -0.040362  0.882605
			-0.144112  0.107125  0.983746
			-0.081611  0.170884  0.981905
			 0.134568  0.252200  0.958273
			-0.080341  0.188759  0.978731
			 0.953369  0.257943  0.156692
			 0.762360  0.639238  0.100906
			 0.519032 -0.238356  0.820848
			 0.757996  0.022809  0.651860
			-0.408491 -0.063775  0.910531
			-0.350388  0.186147  0.917920
			-0.175042  0.159197  0.971605
			-0.570964  0.234716  0.786707
			-0.502911  0.071513  0.861375
			-0.652300  0.237333 -0.719846
			-0.028916  0.987071 -0.157656
			-0.075317  0.984614  0.157681
			-0.703379  0.662335 -0.258013
			 0.654384  0.706876  0.268529
			 0.020612  0.980833  0.193755
			 0.199504  0.894256  0.400631
			-0.856291  0.468463 -0.217505
			-0.802765  0.595514  0.030509
			-0.631956  0.477116 -0.610731
			 0.256521  0.012104  0.966463
			-0.227360 -0.068701  0.971384
			-0.450016  0.797499  0.401846
			-0.176939  0.984071 -0.017244
			-0.318429  0.882804 -0.345340
			-0.195273  0.909241 -0.367627
			-0.441116  0.727948 -0.524889
			-0.484787  0.485971 -0.727196
			 0.005645  0.023288  0.999713
			 0.573073  0.103861  0.812896
			 0.449150  0.296294  0.842896
			 0.786811  0.308161  0.534758
			-0.277753  0.135285  0.951079
			 0.484185  0.110129  0.868007
			 0.264056  0.934982 -0.236820
			 0.666633  0.737543  0.107843
			 0.058053  0.995114 -0.079863
			-0.106618  0.714428 -0.691538
			-0.166848 -0.135599  0.976614
			 0.313205  0.674961  0.668079
			 0.785349 -0.364233  0.500561
			-0.224028 -0.277206  0.934328
			-0.452296  0.061911  0.889716
			-0.541267  0.093995  0.835580
			 0.211649  0.974455 -0.075115
			-0.328089  0.923185 -0.200217
			 0.207754  0.936197 -0.283502
			 0.433495  0.891930 -0.128622
			 0.332027  0.887365 -0.319908
			-0.798748  0.467159 -0.379162
			 0.097036 -0.320799  0.942164
			-0.182407 -0.281352  0.942109
			-0.011708 -0.275236  0.961305
			-0.264257  0.254979  0.930137
			-0.162514  0.986668  0.008708
			 0.154711  0.940841 -0.301467
			 0.054479  0.929979 -0.363553
			 0.278517  0.825632 -0.490673
			-0.015681  0.847100 -0.531202
			-0.412698 -0.041736  0.909911
			 0.804330  0.014473  0.594007
			-0.291774 -0.021222  0.956252
			-0.066262  0.525459  0.848235
			 0.426108  0.902007  0.069386
			 0.309894  0.802733 -0.509495
			-0.303049 -0.159190  0.939585
			-0.071620 -0.069454  0.995011
			-0.041349 -0.408068  0.912015
			-0.022441 -0.333021  0.942652
			-0.147787 -0.300426  0.942286
			 0.143293  0.134926  0.980440
			-0.227654 -0.292490  0.928775
			-0.239590  0.095284  0.966187
			-0.118826  0.540449  0.832943
			 0.329157  0.933033  0.145279
			 0.069872  0.282247  0.956794
			 0.099864  0.022231  0.994753
		</DataArray>
	</PointData>
	<Points>
		<DataArray type="Float32" NumberOfComponents="3" format="ascii">
			 0.000917 -0.092875 -0.023777
			 0.003673 -0.089667 -0.024473
			 0.003089 -0.095595 -0.025802
			 0.002847 -0.097106 -0.025801
			 0.000118 -0.095276 -0.023157
			 0.001074 -0.089041 -0.023488
			 0.000011 -0.092944 -0.023952
			 0.002468 -0.086998 -0.023559
			 0.000324 -0.085546 -0.022808
			 0.004349 -0.088209 -0.024311
			 0.003809 -0.087526 -0.024117
			 0.005001 -0.092774 -0.025033
			 0.005302 -0.090344 -0.024514
			 0.003605 -0.097019 -0.025856
			 0.003136 -0.098277 -0.025551
			 0.002481 -0.098102 -0.025320
			-0.001101 -0.096739 -0.024612
			-0.000315 -0.094895 -0.024327
			-0.000335 -0.098740 -0.024341
			 0.000246 -0.098323 -0.023801
			 0.002015 -0.099011 -0.024851
			-0.001928 -0.087266 -0.025469
			-0.002426 -0.085460 -0.024978
			-0.001607 -0.090119 -0.024713
			 0.003728 -0.087047 -0.023426
			 0.001450 -0.086225 -0.021704
			 0.002271 -0.086805 -0.022605
			-0.003139 -0.083237 -0.023518
			-0.000852 -0.081194 -0.020580
			 0.000659 -0.084838 -0.020639
			 0.005123 -0.089146 -0.023051
			 0.005373 -0.089790 -0.023812
			 0.004328 -0.096590 -0.025638
			 0.005591 -0.091716 -0.024534
			 0.003829 -0.098086 -0.025461
			 0.003286 -0.099250 -0.024972
			-0.001901 -0.095482 -0.024365
			-0.001920 -0.098600 -0.022793
			 0.000411 -0.099347 -0.024495
			 0.001264 -0.099392 -0.024739
			 0.002097 -0.099729 -0.024210
			-0.002964 -0.086871 -0.025000
			-0.003787 -0.084699 -0.023580
			-0.002859 -0.090512 -0.024017
			 0.002095 -0.086975 -0.021582
			-0.004222 -0.078824 -0.022302
			-0.002657 -0.072636 -0.019893
			-0.002722 -0.069972 -0.017911
			-0.000547 -0.081082 -0.018880
			 0.001943 -0.091644 -0.017770
			 0.005967 -0.092119 -0.022221
			 0.005667 -0.090854 -0.023714
			 0.005623 -0.096833 -0.022275
			 0.003226 -0.099883 -0.023850
			 0.002742 -0.099960 -0.024174
			-0.004289 -0.088870 -0.023016
			-0.003661 -0.095944 -0.022842
			 0.001972 -0.100435 -0.023238
			-0.000406 -0.100422 -0.021908
			-0.002485 -0.099670 -0.019831
			-0.004085 -0.096943 -0.021280
			-0.005068 -0.083589 -0.022454
			-0.004244 -0.060965 -0.017247
			-0.005743 -0.060741 -0.017874
			-0.007171 -0.060951 -0.018030
			-0.008423 -0.067775 -0.018643
			-0.003563 -0.082951 -0.014505
			-0.001169 -0.083935 -0.015980
			-0.004097 -0.060756 -0.015526
			-0.004080 -0.061043 -0.016430
			-0.005457 -0.068326 -0.014539
			 0.001651 -0.092125 -0.014946
			 0.002505 -0.095951 -0.016942
			 0.004645 -0.096542 -0.019560
			 0.001009 -0.088802 -0.014708
			-0.000111 -0.087157 -0.015717
			 0.005443 -0.097076 -0.021313
			 0.004764 -0.098221 -0.021063
			 0.003090 -0.100234 -0.022695
			-0.005475 -0.093342 -0.017294
			-0.006456 -0.089828 -0.017637
			-0.007792 -0.081651 -0.015770
			 0.001772 -0.100404 -0.021275
			-0.002872 -0.099538 -0.018837
			 0.001707 -0.100254 -0.019403
			-0.002330 -0.099755 -0.018658
			-0.004516 -0.096851 -0.016460
			-0.004965 -0.096099 -0.016574
			-0.005289 -0.057817 -0.017814
			-0.004615 -0.057859 -0.017520
			-0.006141 -0.054320 -0.016885
			-0.005560 -0.054615 -0.017267
			-0.007983 -0.049690 -0.016665
			-0.009960 -0.049783 -0.015778
			-0.008392 -0.075232 -0.015097
			-0.009917 -0.062002 -0.015335
			-0.010835 -0.053026 -0.014137
			-0.005379 -0.084966 -0.013778
			-0.004256 -0.087848 -0.013646
			-0.000506 -0.087091 -0.014986
			-0.004183 -0.046248 -0.012478
			-0.004997 -0.050365 -0.012408
			-0.007109 -0.059137 -0.012621
			-0.004178 -0.049071 -0.014376
			-0.004996 -0.054573 -0.017304
			-0.007156 -0.075041 -0.014170
			 0.001770 -0.093453 -0.015233
			 0.001194 -0.091143 -0.014356
			 0.004431 -0.098001 -0.020001
			 0.001319 -0.096198 -0.015568
			 0.000621 -0.098572 -0.016745
			 0.000388 -0.089656 -0.013874
			 0.002819 -0.099849 -0.020135
			 0.002793 -0.099960 -0.021085
			-0.005507 -0.093891 -0.016099
			-0.006595 -0.092740 -0.015727
			-0.007372 -0.088064 -0.015994
			-0.007304 -0.091131 -0.015527
			-0.007475 -0.087036 -0.014787
			-0.007348 -0.084303 -0.014381
			-0.001720 -0.098990 -0.016924
			-0.002906 -0.098147 -0.016233
			-0.004473 -0.095412 -0.015943
			-0.003111 -0.095432 -0.016137
			-0.005160 -0.094097 -0.015480
			-0.006442 -0.048432 -0.016623
			-0.004777 -0.048447 -0.017016
			-0.007288 -0.043579 -0.017022
			-0.009010 -0.044030 -0.017097
			-0.009994 -0.044229 -0.016636
			-0.007856 -0.075168 -0.014535
			-0.009302 -0.068732 -0.014165
			-0.011256 -0.048225 -0.011265
			-0.010348 -0.053281 -0.012224
			-0.012136 -0.042831 -0.011119
			-0.012258 -0.039023 -0.013255
			-0.007310 -0.086362 -0.013891
			-0.005739 -0.088567 -0.013225
			-0.007064 -0.086775 -0.013550
			-0.002029 -0.092159 -0.014936
			-0.001133 -0.089658 -0.014438
			-0.003778 -0.090532 -0.014354
			-0.003183 -0.044017 -0.014989
			-0.004855 -0.042479 -0.009710
			-0.006204 -0.050386 -0.011169
			-0.008327 -0.053330 -0.011265
			-0.003912 -0.044080 -0.016840
			-0.000763 -0.093684 -0.014002
			-0.000650 -0.091632 -0.014067
			-0.000959 -0.095839 -0.014850
			-0.005975 -0.092925 -0.015190
			-0.006922 -0.092092 -0.015210
			-0.007849 -0.089670 -0.015146
			-0.007564 -0.090692 -0.015080
			-0.004364 -0.092347 -0.014897
			-0.001662 -0.093152 -0.015103
			-0.005524 -0.037615 -0.016966
			-0.007418 -0.039364 -0.017727
			-0.008560 -0.039308 -0.018443
			-0.003491 -0.039515 -0.016931
			-0.009390 -0.041873 -0.017676
			-0.011025 -0.047885 -0.009605
			-0.010782 -0.048690 -0.010262
			-0.009790 -0.048499 -0.009818
			-0.012538 -0.039209 -0.011912
			-0.012493 -0.039835 -0.011411
			-0.011638 -0.041218 -0.010009
			-0.011261 -0.045760 -0.009302
			-0.011987 -0.038210 -0.014078
			-0.011600 -0.038572 -0.014996
			-0.012574 -0.037860 -0.013358
			-0.007481 -0.087460 -0.013860
			-0.005119 -0.091620 -0.014116
			-0.007511 -0.090110 -0.014191
			-0.001145 -0.093075 -0.014519
			-0.002816 -0.039778 -0.015798
			-0.002604 -0.039635 -0.010852
			-0.001845 -0.038467 -0.014550
			-0.004474 -0.040310 -0.009117
			-0.006911 -0.044913 -0.009182
			-0.005073 -0.040478 -0.009027
			-0.006313 -0.092072 -0.014730
			-0.007402 -0.090707 -0.014579
			-0.007283 -0.036970 -0.018623
			-0.004335 -0.034824 -0.017440
			-0.009260 -0.038700 -0.018674
			-0.010009 -0.038814 -0.017786
			-0.001916 -0.035006 -0.016948
			-0.011652 -0.036815 -0.016334
			-0.010176 -0.047663 -0.009024
			-0.012624 -0.038763 -0.010963
			-0.013616 -0.033242 -0.011697
			-0.013251 -0.036123 -0.012803
			-0.011883 -0.039709 -0.009830
			-0.012286 -0.039408 -0.010405
			-0.010490 -0.043984 -0.008895
			-0.010821 -0.040651 -0.009574
			-0.012457 -0.037362 -0.014227
			-0.011808 -0.037508 -0.014846
			-0.001996 -0.037123 -0.015777
			-0.003648 -0.038968 -0.009411
			-0.003723 -0.037906 -0.009020
			-0.002268 -0.037270 -0.011015
			-0.001564 -0.037153 -0.014202
			-0.005079 -0.039151 -0.008691
			-0.004493 -0.039040 -0.008758
			-0.007348 -0.042503 -0.009180
			-0.006593 -0.040533 -0.009668
			-0.009708 -0.037859 -0.018804
			-0.008485 -0.036695 -0.019018
			-0.007103 -0.035550 -0.018715
			-0.006805 -0.031386 -0.017935
			-0.002892 -0.030270 -0.016664
			-0.002136 -0.031118 -0.016476
			-0.006984 -0.032576 -0.018388
			-0.010528 -0.037920 -0.017727
			-0.001767 -0.034863 -0.016304
			-0.001098 -0.031683 -0.016373
			-0.012649 -0.036087 -0.014225
			-0.011883 -0.035564 -0.016518
			-0.012401 -0.035037 -0.015090
			-0.013063 -0.037796 -0.009834
			-0.013603 -0.034563 -0.010574
			-0.013627 -0.032654 -0.010737
			-0.013161 -0.031365 -0.013407
			-0.013244 -0.030113 -0.011844
			-0.011069 -0.039417 -0.009712
			-0.012166 -0.038672 -0.009500
			-0.008387 -0.040533 -0.010024
			-0.001852 -0.034632 -0.015577
			-0.002000 -0.034517 -0.014811
			-0.004399 -0.038088 -0.008722
			-0.004138 -0.036726 -0.008682
			-0.004720 -0.036680 -0.008698
			-0.004659 -0.037235 -0.008567
			-0.002389 -0.034651 -0.011500
			-0.002906 -0.034162 -0.010366
			-0.003220 -0.034506 -0.009227
			-0.004395 -0.036161 -0.008788
			-0.005969 -0.037410 -0.008736
			-0.007073 -0.036560 -0.008800
			-0.007038 -0.040817 -0.009718
			-0.009991 -0.033151 -0.019577
			-0.008255 -0.032787 -0.020099
			-0.008326 -0.034904 -0.019633
			-0.007080 -0.030516 -0.017549
			-0.008528 -0.031176 -0.019895
			-0.008738 -0.030099 -0.019256
			-0.002688 -0.029537 -0.015877
			-0.011967 -0.032484 -0.016676
			-0.001354 -0.033250 -0.016084
			-0.001027 -0.030990 -0.016045
			-0.000757 -0.031974 -0.015827
			-0.012146 -0.033657 -0.015065
			-0.012272 -0.032334 -0.015039
			-0.012605 -0.031732 -0.014026
			-0.012387 -0.036749 -0.009392
			-0.012949 -0.032662 -0.010136
			-0.013233 -0.029579 -0.010242
			-0.012802 -0.029607 -0.011832
			-0.013200 -0.029118 -0.010914
			-0.013134 -0.030280 -0.012896
			-0.012812 -0.030775 -0.013488
			-0.010516 -0.037942 -0.010623
			-0.011486 -0.038341 -0.009614
			-0.011939 -0.037415 -0.009285
			-0.007670 -0.039559 -0.009850
			-0.009334 -0.038658 -0.010689
			-0.004991 -0.035647 -0.009009
			-0.005536 -0.035722 -0.008897
			-0.005347 -0.036570 -0.008546
			-0.002398 -0.032082 -0.010451
			-0.001001 -0.031378 -0.014813
			-0.003145 -0.033726 -0.009040
			-0.002570 -0.032154 -0.008977
			-0.004401 -0.033187 -0.008999
			-0.004919 -0.034815 -0.009019
			-0.006350 -0.035531 -0.009005
			-0.007547 -0.035806 -0.009488
			-0.008716 -0.036347 -0.010329
			-0.010457 -0.031596 -0.019061
			-0.009210 -0.029631 -0.018377
			-0.010273 -0.030039 -0.015831
			-0.011417 -0.030376 -0.017239
			-0.001179 -0.030513 -0.015737
			-0.008320 -0.030651 -0.014720
			-0.005777 -0.031238 -0.013121
			-0.011481 -0.031392 -0.015404
			-0.011099 -0.030413 -0.016098
			-0.011981 -0.031261 -0.014198
			-0.012050 -0.032952 -0.010507
			-0.012516 -0.030116 -0.009914
			-0.012613 -0.028806 -0.010102
			-0.012410 -0.029175 -0.011043
			-0.012074 -0.029726 -0.012397
			-0.012243 -0.029030 -0.011675
			-0.012738 -0.029963 -0.013178
			-0.012251 -0.030710 -0.013705
			-0.010140 -0.036671 -0.010683
			-0.010982 -0.036998 -0.010363
			-0.005490 -0.035136 -0.009088
			-0.005575 -0.034715 -0.009500
			-0.005638 -0.033980 -0.009737
			-0.005537 -0.034034 -0.009119
			-0.006766 -0.029814 -0.009906
			-0.002625 -0.031369 -0.009523
			-0.005673 -0.031550 -0.012569
			-0.006697 -0.030316 -0.011900
			-0.004077 -0.032729 -0.008725
			-0.003848 -0.030944 -0.008974
			-0.005476 -0.032907 -0.009710
			-0.005358 -0.032465 -0.009341
			-0.006908 -0.034668 -0.009170
			-0.008009 -0.034749 -0.010309
			-0.010333 -0.030591 -0.014179
			-0.011096 -0.030256 -0.014380
			-0.010368 -0.030240 -0.013486
			-0.009653 -0.030326 -0.012431
			-0.008789 -0.030906 -0.012116
			-0.011430 -0.030778 -0.014590
			-0.010759 -0.031735 -0.010528
			-0.009372 -0.032321 -0.010635
			-0.011733 -0.030944 -0.009999
			-0.012118 -0.029099 -0.009676
			-0.012067 -0.028859 -0.010281
			-0.010489 -0.028666 -0.010811
			-0.011441 -0.029578 -0.012864
			-0.010701 -0.028962 -0.011478
			-0.011500 -0.029986 -0.013571
			-0.008714 -0.033785 -0.010641
			-0.005549 -0.033202 -0.009067
			-0.007008 -0.032544 -0.009612
			-0.007594 -0.029441 -0.009642
			-0.008932 -0.029399 -0.009988
			-0.009176 -0.030089 -0.011405
			-0.005509 -0.031885 -0.009090
			-0.007635 -0.031033 -0.009558
			-0.010349 -0.031040 -0.010221
			-0.011340 -0.030385 -0.009777
			-0.010959 -0.029318 -0.009394
			-0.010014 -0.029200 -0.009319
			-0.008585 -0.031254 -0.009587
			-0.011604 -0.029145 -0.009453
			-0.010838 -0.028334 -0.009342
			-0.010236 -0.028435 -0.009685
			-0.008112 -0.029968 -0.009734
			-0.009250 -0.029963 -0.009359
		</DataArray>
	</Points>
			<Polys>
				<DataArray type="Int32" Name="connectivity" format="ascii">
					0 1 2 
					2 3 0 
					0 3 4 
					5 1 0 
					0 4 6 
					5 0 6 
					7 1 8 
					9 1 10 
					5 8 1 
					1 11 2 
					7 10 1 
					12 1 9 
					11 1 12 
					3 2 13 
					2 11 13 
					14 15 3 
					14 3 13 
					3 15 4 
					4 16 17 
					4 18 16 
					17 6 4 
					19 18 4 
					15 20 4 
					4 20 19 
					21 22 5 
					23 5 6 
					5 23 21 
					8 5 22 
					6 17 23 
					24 10 7 
					8 25 7 
					25 26 7 
					24 7 26 
					8 22 27 
					27 28 8 
					8 29 25 
					28 29 8 
					30 9 24 
					10 24 9 
					31 12 9 
					31 9 30 
					13 11 32 
					11 12 33 
					11 33 32 
					12 31 33 
					34 13 32 
					14 13 34 
					35 14 34 
					35 15 14 
					35 20 15 
					17 16 36 
					16 37 36 
					16 18 37 
					23 17 36 
					18 38 37 
					19 38 18 
					19 39 38 
					20 39 19 
					40 20 35 
					20 40 39 
					21 41 22 
					21 23 41 
					22 42 27 
					41 42 22 
					43 41 23 
					36 43 23 
					24 26 44 
					24 44 30 
					25 29 44 
					25 44 26 
					27 45 28 
					27 42 45 
					28 45 46 
					46 47 28 
					47 48 28 
					28 48 29 
					29 48 49 
					29 49 44 
					50 51 30 
					51 31 30 
					30 44 49 
					50 30 49 
					51 33 31 
					52 32 33 
					34 32 52 
					33 51 52 
					34 52 35 
					53 35 52 
					54 35 53 
					40 35 54 
					55 36 56 
					36 55 43 
					37 56 36 
					37 57 58 
					58 59 37 
					37 60 56 
					37 59 60 
					38 57 37 
					39 57 38 
					40 57 39 
					57 40 54 
					41 55 42 
					55 41 43 
					45 42 61 
					55 61 42 
					45 62 46 
					45 63 62 
					63 45 64 
					45 65 64 
					61 65 45 
					46 62 47 
					47 66 67 
					68 47 69 
					62 69 47 
					67 48 47 
					47 68 70 
					66 47 70 
					48 67 49 
					71 72 49 
					73 49 72 
					49 74 71 
					75 74 49 
					50 49 73 
					67 75 49 
					76 50 73 
					50 52 51 
					50 76 52 
					76 77 52 
					53 52 77 
					57 53 78 
					78 53 77 
					54 53 57 
					79 80 55 
					55 56 60 
					55 81 61 
					60 79 55 
					55 80 81 
					78 82 57 
					82 58 57 
					59 58 83 
					84 85 58 
					85 83 58 
					58 82 84 
					60 59 83 
					60 86 87 
					83 86 60 
					60 87 79 
					65 61 81 
					63 88 62 
					88 89 62 
					69 62 89 
					90 63 64 
					90 91 63 
					91 88 63 
					92 90 64 
					92 64 93 
					65 93 64 
					94 95 65 
					93 65 96 
					95 96 65 
					65 81 94 
					66 70 97 
					97 98 66 
					98 67 66 
					67 98 99 
					67 99 75 
					100 68 69 
					68 100 101 
					68 101 102 
					68 102 70 
					69 103 100 
					104 103 69 
					69 89 104 
					70 102 105 
					70 105 97 
					106 71 107 
					74 107 71 
					71 106 72 
					108 73 72 
					72 106 109 
					108 72 110 
					109 110 72 
					73 108 76 
					99 74 75 
					111 107 74 
					74 99 111 
					77 76 108 
					112 113 77 
					112 77 108 
					78 77 113 
					82 78 113 
					114 79 87 
					115 79 114 
					115 80 79 
					81 80 116 
					115 117 80 
					117 116 80 
					118 81 116 
					119 94 81 
					119 81 118 
					84 82 113 
					83 85 86 
					112 110 84 
					84 110 120 
					120 85 84 
					84 113 112 
					85 120 121 
					85 121 86 
					86 122 87 
					123 86 121 
					86 123 122 
					122 124 87 
					114 87 124 
					91 104 88 
					88 104 89 
					125 90 92 
					90 125 126 
					90 126 91 
					91 126 104 
					92 127 125 
					92 128 127 
					92 93 129 
					92 129 128 
					129 93 96 
					130 131 94 
					94 119 130 
					95 94 131 
					96 95 131 
					132 96 133 
					133 96 131 
					134 96 132 
					135 96 134 
					129 96 135 
					136 97 119 
					105 119 97 
					97 137 98 
					137 97 138 
					136 138 97 
					139 140 98 
					139 98 141 
					141 98 137 
					140 99 98 
					111 99 140 
					103 142 100 
					142 143 100 
					101 100 143 
					144 102 101 
					143 144 101 
					102 144 145 
					145 105 102 
					126 103 104 
					142 103 146 
					103 126 146 
					130 119 105 
					105 131 130 
					105 145 131 
					107 147 106 
					106 147 109 
					148 107 111 
					147 107 148 
					108 110 112 
					149 109 147 
					109 149 110 
					110 149 121 
					110 121 120 
					111 140 148 
					115 114 150 
					114 124 150 
					115 150 151 
					117 115 151 
					117 152 116 
					116 152 118 
					152 117 153 
					117 151 153 
					118 152 136 
					136 119 118 
					123 121 149 
					123 154 122 
					154 124 122 
					155 154 123 
					155 123 149 
					150 124 154 
					125 146 126 
					125 127 146 
					156 127 157 
					127 158 157 
					127 156 159 
					127 159 146 
					127 128 158 
					128 129 160 
					128 160 158 
					129 135 160 
					133 131 145 
					134 132 161 
					162 161 132 
					133 162 132 
					145 163 133 
					162 133 163 
					164 134 165 
					165 134 166 
					167 166 134 
					167 134 161 
					135 134 164 
					168 169 135 
					135 164 170 
					135 170 168 
					160 135 169 
					171 136 152 
					138 136 171 
					172 137 173 
					137 172 141 
					138 173 137 
					138 171 173 
					139 141 155 
					139 155 174 
					148 140 139 
					148 139 174 
					141 172 154 
					154 155 141 
					146 175 142 
					176 142 177 
					176 178 142 
					178 143 142 
					177 142 175 
					179 144 143 
					180 143 178 
					143 180 179 
					144 179 163 
					163 145 144 
					159 175 146 
					174 149 147 
					174 147 148 
					155 149 174 
					150 154 181 
					150 181 151 
					151 181 182 
					153 151 182 
					173 171 152 
					173 152 182 
					152 153 182 
					154 172 181 
					157 183 156 