<?xml version="1.0"?>
<VTKFile type="PolyData" version="0.1" byte_order="LittleEndian" compressor="vtkZLibDataCompressor">
	<PolyData>
		<Piece NumberOfPoints="296" NumberOfVerts="0" NumberOfLines="0" NumberOfStrips="0" NumberOfPolys="588">
		<PointData Normals="Normals">
		<DataArray type="Float32" Name="Normals" NumberOfComponents="3" format="ascii">
			 0.480306  0.622181  0.618221
			-0.327794  0.439554  0.836267
			-0.056882  0.370339  0.927153
			 0.482427  0.559285  0.674140
			 0.358836  0.769102  0.528885
			-0.194948  0.587774  0.785186
			 0.224467  0.124538  0.966491
			 0.758809  0.583731  0.288907
			 0.548947  0.741558  0.385681
			 0.238247  0.754502  0.611527
			-0.393487  0.337759  0.855036
			-0.680282  0.383986  0.624316
			 0.567036  0.483133  0.667123
			 0.576903 -0.050438  0.815254
			 0.187683  0.815078  0.548109
			 0.136339  0.924015  0.357223
			 0.716722  0.664970  0.210057
			-0.374454  0.510193  0.774266
			-0.236223 -0.173973  0.955998
			 0.206854 -0.479650  0.852730
			-0.229899  0.178927  0.956625
			 0.744362  0.567745  0.351555
			 0.494169  0.667721  0.556728
			-0.571670  0.309483  0.759878
			-0.764635  0.396916  0.507730
			-0.745332  0.476328  0.466468
			-0.818151  0.141423  0.557340
			 0.780648 -0.022884  0.624552
			 0.694506  0.559785  0.451998
			 0.994311  0.066166  0.083474
			 0.898517 -0.333212  0.285720
			 0.627912 -0.438785  0.642802
			 0.052409  0.986277  0.156562
			 0.571852  0.818594  0.053746
			 0.169518  0.923720 -0.343520
			 0.582604  0.597153  0.551345
			 0.648710  0.663348 -0.373021
			 0.701917  0.603798  0.377811
			 0.892225  0.450341 -0.033583
			 0.074463  0.531103  0.844029
			-0.396472  0.406270  0.823259
			-0.910580 -0.044843  0.410893
			-0.658100 -0.077070  0.748976
			-0.270668 -0.419024  0.866694
			 0.011883 -0.705844  0.708268
			 0.526995 -0.695345  0.488642
			-0.861920  0.222369  0.455681
			-0.966237 -0.156543  0.204648
			-0.894225 -0.047277  0.445114
			-0.884687 -0.102261  0.454831
			-0.927454  0.106478  0.358458
			 0.966358  0.233274 -0.108332
			 0.818599 -0.459668 -0.344383
			 0.667047 -0.061059 -0.742510
			 0.856262 -0.508582 -0.090336
			 0.768644 -0.579499  0.270865
			 0.069197  0.809732 -0.582705
			 0.573658  0.403776 -0.712658
			 0.596605  0.456218 -0.660248
			-0.010252  0.595062 -0.803615
			 0.362601  0.636612  0.680621
			 0.689993  0.623737  0.367236
			 0.863355  0.227243 -0.450533
			 0.807848 -0.063698 -0.585939
			 0.658903  0.530091  0.533714
			 0.980549  0.029235 -0.194083
			 0.886767  0.389850  0.248318
			 0.015543  0.539333  0.841949
			-0.907019 -0.260946  0.330490
			-0.541652  0.238561  0.806041
			-0.635630 -0.623788 -0.454821
			-0.673531 -0.495522 -0.548466
			-0.875715  0.025134  0.482173
			-0.500488 -0.523146  0.689804
			-0.178687 -0.851294  0.493326
			 0.179085 -0.923421  0.339443
			 0.582415 -0.791540  0.185088
			-0.916351 -0.245753 -0.316081
			-0.982130 -0.158718  0.101136
			-0.958108 -0.022871  0.285493
			-0.929588 -0.360835  0.075265
			-0.762613 -0.602771  0.234709
			-0.791188 -0.466760  0.395166
			-0.986154 -0.093275  0.137116
			-0.925813 -0.095329  0.365763
			 0.805643 -0.489041 -0.334333
			 0.736464 -0.243696 -0.631057
			 0.822171 -0.522741 -0.225336
			 0.408743  0.145695 -0.900945
			 0.094194  0.285513 -0.953735
			 0.774969 -0.626650 -0.082052
			 0.228600  0.169946 -0.958572
			 0.676072 -0.084885 -0.731930
			 0.379289 -0.258622 -0.888400
			 0.235092 -0.611037 -0.755887
			 0.762968 -0.380884 -0.522309
			 0.464464  0.494403  0.734738
			 0.989274 -0.139211 -0.044249
			 0.843660  0.252634  0.473723
			 0.225497  0.581889  0.781381
			-0.323436  0.420917  0.847477
			-0.791130 -0.207872  0.575241
			-0.910953 -0.377848  0.165515
			-0.749182 -0.621696 -0.228516
			-0.445690 -0.659056 -0.605810
			-0.732712  0.032710  0.679752
			-0.746310  0.218736  0.628630
			-0.472576 -0.677913 -0.563122
			-0.387775 -0.626490 -0.676122
			-0.476964 -0.343423 -0.809053
			 0.003469 -0.412723 -0.910850
			 0.010105 -0.121578 -0.992530
			-0.878189 -0.331055  0.345233
			-0.300070 -0.908849  0.289743
			-0.509078 -0.767367  0.389857
			-0.203801 -0.938937  0.277240
			 0.378209 -0.923919  0.057715
			-0.035895 -0.973272  0.226832
			 0.680015 -0.714302 -0.165387
			 0.661196 -0.748350 -0.052840
			-0.903740 -0.164605 -0.395170
			-0.996770 -0.077705 -0.020305
			-0.648754 -0.426755 -0.630079
			-0.525332 -0.836783 -0.154340
			-0.395644 -0.918298  0.013988
			-0.544458 -0.821659  0.168647
			-0.700679 -0.704641  0.111940
			-0.859903 -0.457792  0.225818
			 0.871394 -0.446902 -0.202363
			 0.726502 -0.528807 -0.438815
			 0.662173 -0.179488 -0.727538
			 0.841569 -0.508069 -0.183379
			 0.177517  0.364940 -0.913951
			 0.057615  0.464555 -0.883668
			 0.056080  0.272620 -0.960486
			 0.090226  0.245928 -0.965080
			 0.346118  0.180791 -0.920607
			-0.090615 -0.567036 -0.818694
			 0.261060 -0.500927 -0.825179
			 0.131004 -0.548590 -0.825764
			-0.164185 -0.779220 -0.604863
			 0.349058 -0.835384 -0.424608
			 0.670314 -0.580519 -0.462252
			 0.756188  0.319953  0.570798
			 0.958611 -0.284073  0.019146
			 0.690240 -0.688437 -0.222763
			-0.057962  0.905961  0.419374
			 0.272940  0.862607  0.425926
			 0.400282  0.657029  0.638817
			 0.538240  0.585701  0.606013
			-0.350139  0.749870  0.561336
			-0.620552  0.452965  0.640108
			-0.794173 -0.161601  0.585811
			-0.757760 -0.488192  0.432977
			-0.805032 -0.457644  0.377473
			-0.723186 -0.688484 -0.054697
			-0.433261 -0.826886 -0.358532
			-0.037578 -0.603893 -0.796179
			-0.917475  0.074931  0.390672
			-0.910768  0.118304 -0.395608
			-0.838718  0.509032  0.193488
			-0.314530 -0.413094 -0.854649
			-0.307605 -0.288481 -0.906729
			 0.073380  0.448934 -0.890547
			-0.015840  0.149098 -0.988696
			-0.688693 -0.699336  0.191393
			-0.311124 -0.922334  0.229135
			-0.255384 -0.920687  0.295151
			-0.124161 -0.985185  0.118299
			 0.073570 -0.847145 -0.526244
			-0.079091 -0.965091 -0.249687
			-0.129003 -0.777515 -0.615490
			-0.051424 -0.411032 -0.910169
			-0.320293 -0.877422 -0.357131
			-0.392586 -0.918462 -0.048004
			-0.561984 -0.820053  0.108108
			-0.635588 -0.698940 -0.327889
			-0.595023 -0.783879 -0.177429
			 0.014520 -0.602214 -0.798202
			 0.143774  0.259732 -0.954918
			-0.044379  0.562300 -0.825742
			 0.053932 -0.963632 -0.261735
			 0.555272 -0.826255 -0.094742
			 0.850599  0.462678  0.249822
			 0.772013 -0.590931 -0.234089
			 0.761072 -0.377258 -0.527679
			 0.962719 -0.115787 -0.244470
			-0.308798  0.949192 -0.060650
			-0.178292  0.971979 -0.153193
			 0.142383  0.984245  0.104829
			 0.365986  0.884335  0.289837
			-0.598729  0.799268  0.051905
			-0.890442 -0.443931 -0.100195
			-0.539162 -0.787481 -0.298627
			-0.479562 -0.783381 -0.395392
			-0.496274 -0.761273 -0.417343
			-0.199008 -0.852120 -0.484032
			-0.570193  0.104418 -0.814848
			-0.602798  0.592540 -0.534351
			-0.599648 -0.210280 -0.772143
			-0.586685 -0.553753 -0.590897
			-0.460773 -0.104695 -0.881321
			-0.341990 -0.538204 -0.770311
			-0.277249 -0.309883 -0.909453
			-0.385840 -0.894397  0.226233
			-0.527442 -0.834533 -0.159246
			-0.503092 -0.681905 -0.530946
			-0.537569 -0.680647 -0.497734
			-0.207417 -0.733797 -0.646932
			-0.584980 -0.759375 -0.284864
			-0.501445 -0.671710 -0.545305
			-0.191745 -0.763477 -0.616714
			-0.491549 -0.574016 -0.654894
			-0.669632 -0.541207 -0.508614
			-0.612985 -0.685749 -0.392425
			-0.489091 -0.868109 -0.084711
			-0.493521 -0.637410 -0.591731
			-0.606311 -0.291725 -0.739786
			-0.577971 -0.288600 -0.763321
			 0.218191 -0.960225 -0.174245
			 0.454945 -0.795771 -0.399717
			 0.696698 -0.626256 -0.349880
			 0.348284  0.936937 -0.029097
			 0.763683  0.404301 -0.503318
			 0.466312 -0.342376 -0.815679
			 0.665567 -0.053102 -0.744447
			-0.403539  0.836020 -0.371789
			-0.184342  0.758122 -0.625515
			-0.018013  0.996261 -0.084492
			-0.035465  0.820804 -0.570108
			 0.223036  0.970409 -0.092532
			 0.210267  0.977574 -0.011715
			 0.225260  0.970621  0.084570
			-0.623720 -0.490128 -0.608891
			-0.664777 -0.451172 -0.595412
			-0.352816 -0.397544 -0.847041
			-0.281873 -0.424370 -0.860498
			-0.097976 -0.778306 -0.620194
			-0.413699  0.352139 -0.839554
			-0.289879  0.403003 -0.868078
			-0.282842  0.664497 -0.691697
			-0.543466 -0.395269 -0.740545
			-0.528013 -0.518382 -0.672668
			-0.604679 -0.233684 -0.761417
			-0.628675 -0.311357 -0.712618
			-0.608965 -0.226175 -0.760268
			-0.696268 -0.611628 -0.375662
			-0.712341 -0.407472 -0.571435
			 0.125841 -0.567008 -0.814043
			 0.602230 -0.536657 -0.591032
			-0.110661  0.966024 -0.233565
			 0.233041  0.968335 -0.089550
			 0.044741  0.866308 -0.497502
			 0.202180  0.556262 -0.806037
			-0.370147  0.028594 -0.928533
			-0.415032 -0.229863 -0.880291
			-0.110755 -0.400724 -0.909480
			-0.116790  0.005007 -0.993144
			-0.286415 -0.079585 -0.954795
			 0.530661 -0.173317 -0.829675
			 0.721325 -0.039370 -0.691477
			 0.323601  0.451317 -0.831622
			-0.128081  0.516586 -0.846602
			 0.085269  0.940593 -0.328656
			 0.076681  0.861289 -0.502296
			-0.182188  0.692205 -0.698326
			 0.146068  0.962726 -0.227648
			-0.064984  0.860933 -0.504551
			-0.739469 -0.299134 -0.603080
			-0.795226 -0.096164 -0.598639
			-0.525955 -0.318144 -0.788769
			-0.311256 -0.446886 -0.838697
			-0.024272 -0.469760 -0.882461
			-0.546600  0.398228 -0.736643
			-0.692019 -0.048787 -0.720228
			-0.576593  0.445946 -0.684597
			-0.475585  0.773836 -0.418326
			-0.436088  0.613283 -0.658568
			 0.098589  0.954795 -0.280439
			-0.417590  0.855025 -0.307491
			-0.170567  0.813427 -0.556097
			-0.455078  0.809842 -0.370215
			-0.419217  0.776217 -0.470897
			-0.723844  0.300469 -0.621103
			-0.628286  0.582629 -0.515558
			-0.551587  0.149588 -0.820595
			-0.445765 -0.293687 -0.845601
			-0.081195  0.169749 -0.982137
			 0.214353  0.343547 -0.914346
			 0.005830  0.702403 -0.711755
			-0.416668  0.650324 -0.635191
			-0.757900  0.025259 -0.651882
			-0.575544 -0.151615 -0.803593
			-0.612704  0.125488 -0.780286
			-0.650327  0.638034 -0.412295
			-0.659460  0.621022 -0.423609
		</DataArray>
	</PointData>
	<Points>
		<DataArray type="Float32" NumberOfComponents="3" format="ascii">
			 0.017092 -0.053626  0.058636
			 0.015573 -0.053452  0.058875
			 0.016068 -0.054392  0.059478
			 0.018581 -0.054825  0.058555
			 0.017733 -0.051425  0.053651
			 0.014870 -0.050677  0.056704
			 0.017720 -0.055772  0.059733
			 0.016297 -0.049618  0.053280
			 0.015833 -0.049267  0.054570
			 0.015354 -0.049765  0.055754
			 0.015525 -0.055870  0.059473
			 0.013908 -0.055920  0.058298
			 0.020353 -0.054678  0.057534
			 0.020170 -0.056298  0.058115
			 0.020166 -0.050257  0.052956
			 0.017954 -0.049835  0.051399
			 0.016663 -0.048829  0.051282
			 0.011331 -0.047532  0.052924
			 0.014751 -0.057260  0.059467
			 0.016132 -0.057941  0.059228
			 0.015734 -0.056261  0.059721
			 0.015970 -0.048497  0.052091
			 0.015425 -0.048617  0.053647
			 0.013982 -0.056479  0.058980
			 0.012549 -0.057428  0.057650
			 0.012513 -0.057173  0.057087
			 0.010982 -0.057344  0.055316
			 0.020919 -0.055965  0.057358
			 0.022086 -0.051428  0.052249
			 0.022991 -0.054023  0.053152
			 0.022327 -0.056233  0.055214
			 0.020119 -0.057906  0.057459
			 0.019986 -0.049656  0.051758
			 0.021733 -0.049866  0.050189
			 0.017705 -0.049710  0.049827
			 0.014912 -0.047413  0.052597
			 0.016654 -0.049488  0.049566
			 0.015046 -0.046340  0.051232
			 0.014891 -0.045620  0.049485
			 0.012986 -0.047067  0.053063
			 0.008907 -0.039245  0.047212
			 0.006495 -0.051129  0.047710
			 0.013166 -0.058117  0.058450
			 0.013840 -0.058923  0.058656
			 0.014246 -0.061404  0.056957
			 0.018344 -0.060956  0.055912
			 0.011129 -0.058211  0.056168
			 0.007167 -0.055258  0.049496
			 0.008102 -0.056232  0.050940
			 0.008483 -0.058921  0.051785
			 0.010810 -0.059232  0.055006
			 0.022629 -0.051479  0.051186
			 0.021212 -0.057307  0.050639
			 0.020940 -0.052091  0.048254
			 0.020321 -0.059189  0.052950
			 0.019449 -0.060286  0.054709
			 0.019881 -0.049894  0.048886
			 0.021611 -0.050486  0.049049
			 0.016795 -0.050308  0.048691
			 0.018227 -0.050716  0.048524
			 0.013917 -0.046020  0.052036
			 0.014248 -0.045185  0.050566
			 0.014778 -0.047434  0.046781
			 0.013778 -0.046377  0.045010
			 0.009494 -0.034457  0.043002
			 0.011884 -0.038165  0.042156
			 0.011711 -0.037547  0.043290
			 0.005947 -0.031154  0.041498
			 0.002016 -0.042793  0.041357
			 0.002442 -0.032247  0.040795
			 0.004821 -0.047841  0.043384
			 0.006447 -0.051815  0.045831
			 0.010771 -0.059716  0.055422
			 0.011881 -0.061371  0.056261
			 0.012845 -0.062159  0.055706
			 0.015553 -0.063335  0.053857
			 0.018593 -0.061374  0.054156
			 0.007569 -0.055505  0.048122
			 0.007490 -0.056543  0.049249
			 0.007921 -0.057736  0.050419
			 0.007931 -0.059951  0.049631
			 0.008682 -0.060771  0.050994
			 0.009345 -0.060745  0.052529
			 0.007688 -0.058793  0.049780
			 0.010332 -0.060336  0.054410
			 0.019861 -0.058543  0.050094
			 0.019502 -0.056565  0.048035
			 0.019549 -0.059276  0.051221
			 0.018425 -0.055329  0.047429
			 0.018290 -0.052691  0.047522
			 0.019589 -0.061095  0.053164
			 0.016177 -0.051510  0.048091
			 0.015145 -0.049737  0.047063
			 0.013542 -0.052086  0.046859
			 0.007687 -0.043927  0.039917
			 0.009764 -0.038061  0.037164
			 0.009943 -0.031037  0.040117
			 0.012589 -0.031061  0.035007
			 0.010928 -0.030989  0.039050
			 0.005452 -0.024254  0.037624
			 0.001736 -0.025592  0.037853
			-0.002138 -0.033231  0.036203
			-0.002068 -0.034849  0.035964
			-0.000811 -0.036584  0.035991
			 0.001673 -0.040967  0.038069
			-0.001471 -0.032179  0.037143
			-0.002301 -0.025728  0.035165
			 0.004390 -0.045285  0.041131
			 0.006592 -0.049546  0.044288
			 0.008358 -0.055898  0.047248
			 0.009893 -0.053590  0.045622
			 0.010847 -0.054929  0.046149
			 0.010502 -0.060951  0.055017
			 0.012375 -0.062484  0.054736
			 0.011305 -0.061864  0.055205
			 0.013914 -0.062918  0.054311
			 0.016714 -0.062986  0.052546
			 0.014647 -0.063483  0.052895
			 0.018582 -0.061320  0.051741
			 0.017719 -0.062491  0.051013
			 0.007782 -0.058575  0.048630
			 0.007651 -0.057718  0.048866
			 0.008037 -0.059839  0.048332
			 0.008607 -0.060818  0.049630
			 0.009475 -0.061338  0.050999
			 0.009907 -0.061319  0.052332
			 0.010333 -0.061454  0.053508
			 0.010786 -0.061513  0.054189
			 0.019207 -0.059691  0.049513
			 0.017205 -0.062218  0.048164
			 0.017501 -0.059251  0.046194
			 0.018776 -0.060412  0.050468
			 0.016593 -0.057506  0.045325
			 0.016316 -0.055662  0.046529
			 0.017185 -0.054235  0.047273
			 0.013551 -0.055098  0.047123
			 0.012232 -0.055209  0.046898
			 0.006343 -0.047870  0.042324
			 0.007376 -0.046968  0.042614
			 0.006325 -0.044668  0.040540
			 0.002341 -0.036495  0.033030
			 0.006481 -0.034606  0.030930
			 0.010073 -0.033064  0.032842
			 0.011557 -0.027411  0.036507
			 0.012651 -0.029489  0.033268
			 0.008141 -0.033232  0.029444
			 0.004400 -0.022412  0.035854
			 0.006212 -0.022436  0.035354
			 0.008344 -0.023796  0.035816
			 0.011682 -0.024741  0.034424
			 0.000364 -0.023047  0.035985
			-0.001330 -0.023981  0.035432
			-0.002822 -0.032673  0.035641
			-0.003168 -0.033591  0.034761
			-0.002549 -0.033924  0.035139
			-0.002329 -0.034612  0.034138
			-0.000622 -0.035885  0.034275
			 0.005016 -0.045462  0.040543
			-0.004829 -0.030621  0.033052
			-0.004387 -0.028438  0.031233
			-0.002606 -0.024736  0.034306
			 0.010749 -0.056307  0.046683
			 0.008852 -0.056759  0.047320
			 0.013378 -0.056051  0.046708
			 0.011948 -0.056244  0.046231
			 0.011004 -0.061964  0.054398
			 0.011940 -0.062403  0.054051
			 0.013171 -0.062817  0.053505
			 0.013659 -0.063831  0.052088
			 0.016196 -0.062820  0.047770
			 0.015306 -0.063703  0.050010
			 0.009565 -0.060703  0.048359
			 0.010725 -0.059466  0.047836
			 0.011760 -0.061821  0.051132
			 0.010513 -0.061629  0.051923
			 0.011104 -0.062262  0.053535
			 0.011275 -0.062113  0.052283
			 0.011185 -0.062347  0.052760
			 0.015667 -0.060975  0.045593
			 0.015542 -0.058168  0.044788
			 0.014434 -0.057197  0.046135
			 0.002392 -0.035310  0.030815
			 0.007829 -0.033383  0.027747
			 0.013477 -0.024326  0.031013
			 0.010805 -0.030236  0.027505
			 0.013063 -0.026246  0.027389
			 0.014080 -0.025522  0.028177
			 0.000278 -0.022554  0.034162
			 0.003880 -0.022344  0.030730
			 0.005700 -0.022064  0.033262
			 0.009897 -0.023829  0.034634
			-0.001372 -0.023427  0.034470
			-0.004786 -0.031762  0.032463
			-0.001422 -0.034585  0.031841
			-0.000309 -0.034625  0.030578
			 0.000514 -0.034864  0.029792
			 0.003522 -0.034313  0.025906
			-0.000541 -0.028983  0.027948
			-0.000850 -0.024607  0.030016
			-0.001707 -0.030837  0.029004
			-0.001264 -0.034238  0.030770
			 0.013351 -0.057445  0.045898
			 0.011553 -0.056942  0.046976
			 0.011371 -0.057917  0.047254
			 0.012636 -0.062970  0.052870
			 0.013113 -0.063283  0.051734
			 0.014635 -0.062869  0.048868
			 0.014743 -0.061953  0.047295
			 0.015465 -0.061946  0.047249
			 0.012902 -0.063097  0.050945
			 0.014221 -0.063382  0.049596
			 0.012339 -0.061141  0.049363
			 0.012731 -0.059455  0.047735
			 0.014157 -0.061619  0.048891
			 0.012076 -0.062541  0.051644
			 0.012209 -0.062651  0.052177
			 0.014459 -0.061238  0.046507
			 0.014463 -0.059605  0.045567
			 0.014598 -0.058925  0.044791
			 0.005866 -0.034398  0.026305
			 0.006146 -0.033938  0.025085
			 0.009124 -0.032074  0.026582
			 0.013036 -0.023581  0.029460
			 0.013298 -0.024366  0.027042
			 0.008109 -0.029825  0.023056
			 0.011834 -0.024744  0.025654
			 0.000317 -0.023554  0.030702
			 0.003759 -0.022716  0.030012
			 0.005791 -0.022038  0.031725
			 0.004910 -0.022312  0.030404
			 0.007173 -0.022189  0.031220
			 0.008592 -0.022714  0.030572
			 0.010544 -0.023176  0.030586
			-0.000242 -0.034077  0.029736
			 0.002204 -0.033796  0.026504
			 0.003782 -0.033651  0.025219
			 0.005198 -0.033378  0.024854
			 0.005003 -0.034186  0.025433
			 0.001628 -0.029241  0.026943
			 0.000224 -0.026768  0.028045
			 0.001125 -0.024001  0.029509
			-0.000511 -0.031234  0.028156
			-0.000331 -0.031829  0.028704
			 0.000658 -0.031238  0.027461
			 0.013318 -0.057806  0.046477
			 0.012841 -0.058697  0.046737
			 0.013740 -0.060849  0.047916
			 0.013827 -0.059817  0.046000
			 0.006518 -0.033042  0.024169
			 0.007475 -0.032043  0.024457
			 0.011324 -0.023548  0.027935
			 0.011555 -0.023480  0.029651
			 0.011577 -0.023900  0.025563
			 0.011081 -0.024428  0.025084
			 0.006465 -0.029637  0.022920
			 0.005791 -0.030284  0.023263
			 0.006341 -0.031529  0.023195
			 0.007264 -0.028923  0.022708
			 0.006175 -0.030856  0.023343
			 0.008671 -0.028301  0.022976
			 0.010185 -0.026241  0.024276
			 0.010347 -0.025020  0.024621
			 0.005627 -0.025838  0.028031
			 0.006609 -0.022227  0.030560
			 0.007965 -0.022789  0.030016
			 0.008517 -0.023596  0.029146
			 0.010109 -0.022891  0.029711
			 0.009589 -0.023010  0.029497
			 0.000820 -0.031810  0.027839
			 0.001588 -0.032244  0.026451
			 0.002611 -0.032895  0.025663
			 0.005322 -0.032505  0.024623
			 0.006484 -0.032176  0.023850
			 0.003109 -0.030473  0.025443
			 0.001727 -0.031122  0.026168
			 0.004117 -0.030004  0.025072
			 0.004893 -0.029025  0.025964
			 0.005113 -0.028365  0.026776
			 0.010864 -0.023325  0.028861
			 0.010434 -0.024618  0.025273
			 0.009844 -0.023553  0.028741
			 0.008574 -0.025761  0.024329
			 0.008129 -0.025420  0.027314
			 0.004717 -0.030005  0.024146
			 0.007839 -0.027403  0.023007
			 0.004263 -0.030810  0.024244
			 0.004284 -0.031824  0.024340
			 0.008124 -0.027671  0.022668
			 0.008932 -0.026396  0.023009
			 0.009624 -0.025609  0.023823
			 0.006712 -0.026085  0.027459
			 0.001766 -0.031749  0.026416
			 0.002846 -0.032068  0.025068
			 0.003150 -0.031065  0.025114
			 0.006127 -0.028137  0.026000
			 0.006657 -0.026847  0.026437
		</DataArray>
	</Points>
			<Polys>
				<DataArray type="Int32" Name="connectivity" format="ascii">
					0 1 2 
					0 3 4 
					0 5 1 
					2 6 0 
					6 3 0 
					7 8 0 
					7 0 4 
					9 5 0 
					8 9 0 
					10 2 1 
					10 1 11 
					11 1 5 
					6 2 10 
					3 12 4 
					6 13 3 
					13 12 3 
					12 14 4 
					15 16 4 
					15 4 14 
					16 7 4 
					5 9 17 
					5 17 11 
					18 19 6 
					18 6 20 
					20 6 10 
					13 6 19 
					21 7 16 
					22 8 7 
					22 7 21 
					17 9 8 
					8 22 17 
					20 10 23 
					11 23 10 
					24 11 25 
					11 17 26 
					25 11 26 
					11 24 23 
					13 27 12 
					28 14 12 
					29 28 12 
					27 30 12 
					30 29 12 
					31 13 19 
					27 13 31 
					32 15 14 
					32 14 33 
					14 28 33 
					34 16 15 
					34 15 32 
					21 16 35 
					16 34 36 
					16 37 35 
					16 36 38 
					38 37 16 
					39 40 17 
					17 22 39 
					41 26 17 
					41 17 40 
					23 18 20 
					18 23 42 
					19 18 43 
					18 42 43 
					43 44 19 
					19 45 31 
					45 19 44 
					35 22 21 
					39 22 35 
					24 42 23 
					46 42 24 
					46 24 25 
					26 46 25 
					47 26 41 
					26 47 48 
					26 48 49 
					49 50 26 
					46 26 50 
					27 31 30 
					33 28 51 
					28 29 51 
					52 53 29 
					29 30 52 
					51 29 53 
					54 52 30 
					30 31 45 
					54 30 55 
					30 45 55 
					32 33 56 
					56 34 32 
					57 33 51 
					56 33 57 
					36 34 58 
					59 58 34 
					59 34 56 
					35 60 39 
					60 35 37 
					36 58 38 
					61 37 38 
					60 37 61 
					62 38 58 
					63 38 62 
					61 38 64 
					38 63 65 
					66 64 38 
					66 38 65 
					60 40 39 
					67 40 60 
					68 41 40 
					69 68 40 
					40 67 69 
					70 41 68 
					41 70 71 
					47 41 71 
					42 72 73 
					42 73 43 
					46 72 42 
					73 44 43 
					74 44 73 
					45 44 75 
					75 44 74 
					45 76 55 
					45 75 76 
					46 50 72 
					77 78 47 
					47 71 77 
					47 78 48 
					48 79 49 
					78 79 48 
					80 81 49 
					81 82 49 
					49 79 83 
					49 82 84 
					49 83 80 
					84 50 49 
					72 50 84 
					57 51 53 
					52 85 86 
					52 86 53 
					87 85 52 
					87 52 54 
					53 88 89 
					86 88 53 
					89 57 53 
					54 55 90 
					90 87 54 
					55 76 90 
					89 56 57 
					89 59 56 
					91 92 58 
					62 58 92 
					58 59 91 
					59 89 91 
					60 64 67 
					60 61 64 
					62 92 63 
					93 63 92 
					63 94 95 
					94 63 93 
					95 65 63 
					64 96 67 
					64 66 97 
					98 64 97 
					64 98 96 
					65 95 97 
					65 97 66 
					96 99 67 
					99 100 67 
					100 69 67 
					68 101 102 
					103 104 68 
					105 68 69 
					105 101 68 
					104 70 68 
					68 102 103 
					105 69 106 
					100 106 69 
					104 107 70 
					71 70 108 
					70 107 108 
					71 109 77 
					108 110 71 
					110 111 71 
					111 109 71 
					112 73 72 
					72 84 112 
					113 74 73 
					73 112 114 
					113 73 114 
					115 74 113 
					75 74 115 
					75 116 76 
					116 75 117 
					75 115 117 
					76 118 90 
					76 116 119 
					76 119 118 
					77 120 121 
					109 120 77 
					77 121 78 
					78 121 79 
					83 79 121 
					80 120 122 
					83 120 80 
					122 123 80 
					123 81 80 
					123 124 81 
					124 125 81 
					125 82 81 
					82 126 127 
					82 127 84 
					125 126 82 
					83 121 120 
					112 84 127 
					85 128 86 
					85 87 128 
					129 86 128 
					86 130 88 
					130 86 129 
					87 90 131 
					87 131 128 
					132 88 130 
					133 134 88 
					133 88 132 
					134 89 88 
					134 91 89 
					118 131 90 
					135 93 91 
					93 92 91 
					91 134 135 
					93 136 110 
					137 93 110 
					93 135 136 
					138 93 137 
					94 93 138 
					94 139 104 
					104 140 94 
					138 139 94 
					141 94 140 
					141 142 94 
					94 142 95 
					97 95 142 
					143 99 96 
					96 98 143 
					144 97 145 
					142 145 97 
					98 97 144 
					144 143 98 
					146 100 99 
					147 146 99 
					147 99 148 
					148 99 149 
					99 143 149 
					150 100 146 
					151 106 100 
					150 151 100 
					101 152 153 
					105 152 101 
					154 102 101 
					153 154 101 
					155 103 102 
					102 154 155 
					156 104 103 
					156 103 155 
					104 156 140 
					157 104 139 
					157 107 104 
					106 158 105 
					105 158 152 
					159 106 160 
					158 106 159 
					160 106 151 
					108 107 137 
					157 137 107 
					137 110 108 
					111 161 109 
					161 162 109 
					120 109 162 
					111 110 136 
					136 163 111 
					164 111 163 
					164 161 111 
					165 114 112 
					165 112 127 
					166 167 113 
					166 113 114 
					115 113 167 
					114 165 166 
					115 167 117 
					116 117 168 
					119 116 168 
					117 167 168 
					119 131 118 
					129 119 169 
					170 169 119 
					128 119 129 
					119 128 131 
					170 119 168 
					120 162 122 
					171 123 122 
					172 122 162 
					171 122 172 
					173 124 123 
					173 123 171 
					173 174 124 
					124 174 125 
					174 126 125 
					127 126 175 
					174 176 126 
					176 177 126 
					177 175 126 
					165 127 175 
					130 129 178 
					169 178 129 
					178 179 130 
					132 130 179 
					180 163 132 
					132 179 180 
					132 163 133 
					133 135 134 
					163 135 133 
					135 163 136 
					137 157 138 
					157 139 138 
					181 140 156 
					181 141 140 
					182 141 181 
					182 145 141 
					141 145 142 
					183 143 144 
					149 143 183 
					184 185 144 
					144 186 183 
					144 145 184 
					186 144 185 
					145 182 184 
					146 187 150 
					188 146 189 
					146 147 189 
					146 188 187 
					190 189 147 
					147 148 190 
					190 148 149 
					190 149 183 
					150 187 191 
					150 191 151 
					151 191 160 
					152 158 192 
					192 153 152 
					154 153 155 
					155 153 192 
					193 156 155 
					193 155 192 
					156 194 195 
					156 196 181 
					193 194 156 
					195 196 156 
					159 192 158 
					197 159 198 
					159 199 200 
					200 192 159 
					160 198 159 
					199 159 197 
					191 198 160 
					164 201 161 
					201 202 161 
					202 162 161 
					162 202 203 
					172 162 203 
					164 163 180 
					201 164 180 
					175 166 165 
					175 204 166 
					204 167 166 
					204 168 167 
					204 205 168 
					168 205 170 
					170 206 169 
					207 169 206 
					178 169 208 
					207 208 169 
					170 205 209 
					210 206 170 
					210 170 209 
					211 173 171 
					211 171 172 
					211 172 212 
					172 203 212 
					213 173 211 
					214 176 173 
					214 173 213 
					173 176 174 
					175 177 215 
					215 205 175 
					205 204 175 
					176 214 177 
					214 215 177 
					216 217 178 
					178 208 216 
					218 178 217 
					218 179 178 
					180 179 201 
					218 201 179 
					196 219 181 
					182 181 219 
					182 219 220 
					221 184 182 
					220 221 182 
					222 183 223 
					186 223 183 
					183 222 190 
					185 184 224 
					221 224 184 
					185 224 225 
					225 223 185 
					186 185 223 
					191 187 226 
					187 188 227 
					227 226 187 
					189 228 188 
					229 188 228 
					229 227 188 
					189 230 228 
					231 230 189 
					231 189 190 
					231 190 232 
					190 222 232 
					226 198 191 
					200 193 192 
					193 200 194 
					233 194 200 
					195 194 233 
					195 233 234 
					195 234 196 
					235 236 196 
					236 237 196 
					219 196 237 
					235 196 234 
					197 238 199 
					198 239 197 
					239 238 197 
					198 240 239 
					198 226 240 
					199 241 242 
					199 242 200 
					243 241 199 
					199 238 243 
					200 242 233 
					201 218 244 
					202 201 244 
					202 244 203 
					203 244 245 
					212 203 245 
					215 209 205 
					206 210 213 
					207 206 213 
					207 246 216 
					213 246 207 
					207 216 208 
					210 209 213 
					209 214 213 
					214 209 215 
					246 211 212 
					213 211 246 
					247 212 245 
					246 212 247 
					216 246 247 
					247 217 216 
					244 217 245 
					218 217 244 
					247 245 217 
					219 237 220 
					220 237 248 
					220 248 249 
					220 249 221 
					249 224 221 
					250 251 222 
					222 223 250 
					222 251 232 
					252 223 253 
					223 225 253 
					252 250 223 
					254 224 255 
					224 249 256 
					257 224 254 
					258 255 224 
					256 258 224 
					224 257 259 
					260 225 224 
					259 260 224 
					253 225 261 
					261 225 260 
					226 227 240 
					229 262 227 
					240 227 239 
					227 262 239 
					228 230 263 
					263 229 228 
					263 264 229 
					264 265 229 
					229 265 262 
					264 230 231 
					264 263 230 
					231 232 266 
					231 266 267 
					267 264 231 
					232 251 266 
					268 233 242 
					234 233 268 
					269 234 268 
					270 235 234 
					269 270 234 
					236 235 271 
					271 235 270 
					236 248 237 
					248 236 272 
					236 271 272 
					238 273 274 
					238 274 243 
					273 238 275 
					275 238 276 
					238 277 276 
					238 239 262 
					277 238 262 
					242 241 243 
					242 243 268 