<?xml version="1.0"?>
<VTKFile type="PolyData" version="0.1" byte_order="LittleEndian" compressor="vtkZLibDataCompressor">
	<PolyData>
		<Piece NumberOfPoints="82" NumberOfVerts="0" NumberOfLines="0" NumberOfStrips="0" NumberOfPolys="160">
		<PointData Normals="Normals">
		<DataArray type="Float32" Name="Normals" NumberOfComponents="3" format="ascii">
			-0.624601 -0.609480 -0.488270
			-0.536158 -0.635355  0.555751
			-0.461006 -0.876142  0.140886
			-0.434980 -0.750855 -0.497000
			-0.280607 -0.715937  0.639292
			-0.274334 -0.069831 -0.959095
			-0.042737 -0.003149 -0.999081
			-0.337786 -0.543445 -0.768485
			-0.406235 -0.352889 -0.842877
			-0.437172 -0.218253 -0.872494
			-0.560320 -0.763531  0.321032
			 0.096340  0.120861  0.987983
			-0.488896 -0.674486  0.553217
			 0.252721 -0.967352 -0.019032
			-0.030838 -0.830616 -0.555991
			-0.280959 -0.861571  0.422797
			-0.027446  0.177256 -0.983782
			-0.255985 -0.630020 -0.733175
			-0.101565 -0.827815  0.551731
			 0.065653 -0.199282  0.977740
			 0.315872 -0.406229 -0.857440
			 0.408453  0.369080 -0.834833
			-0.142726  0.252006 -0.957143
			 0.282761  0.602444 -0.746396
			-0.275046  0.144560 -0.950501
			 0.413018  0.902770 -0.120093
			 0.362441  0.919211  0.153905
			 0.346998  0.736166  0.581078
			 0.663371  0.448974  0.598633
			 0.399687 -0.107476  0.910329
			 0.048795 -0.574407  0.817114
			 0.395841  0.675118  0.622516
			 0.145573 -0.918018  0.368850
			 0.692415 -0.679585  0.242333
			-0.026515  0.529701 -0.847770
			 0.180064  0.741738 -0.646066
			 0.037189  0.066868 -0.997069
			 0.331724  0.758902 -0.560381
			-0.250544 -0.877937 -0.407990
			 0.232894 -0.158283  0.959535
			 0.071560 -0.757319  0.649113
			 0.216396 -0.390516  0.894802
			 0.338930  0.378794  0.861186
			 0.879132 -0.273559 -0.390246
			 0.882255  0.428040 -0.195979
			 0.498862  0.832596 -0.240668
			 0.910900 -0.166100  0.377719
			 0.385078  0.902076  0.194867
			 0.270815  0.745477 -0.609035
			-0.039164 -0.563734 -0.825027
			-0.296040 -0.874913 -0.383259
			 0.372744  0.323916  0.869564
			-0.249071 -0.952718  0.174048
			 0.001221 -0.243158  0.969986
			 0.114984 -0.222359  0.968161
			 0.281026 -0.103143  0.954141
			 0.996339 -0.040338 -0.075379
			 0.448229  0.516718  0.729447
			-0.561907  0.750529  0.347803
			-0.257108  0.963860 -0.069782
			-0.303006  0.039799 -0.952157
			-0.461473  0.770007 -0.440604
			-0.210255 -0.843351 -0.494522
			 0.205718 -0.957068 -0.204209
			-0.431444 -0.640239 -0.635570
			 0.010016 -0.973659 -0.227791
			-0.495563 -0.561690 -0.662511
			-0.617155 -0.720900  0.315314
			 0.017796 -0.209966  0.977547
			 0.380160 -0.058406  0.923075
			 0.193991  0.034246  0.980406
			-0.767618  0.046269  0.639236
			 0.193606 -0.077605  0.978005
			-0.051639  0.261688  0.963770
			-0.978567 -0.050120 -0.199735
			-0.637190  0.254417  0.727503
			-0.935528  0.345569  0.073284
			-0.927858  0.102293 -0.358631
			-0.143260 -0.979625 -0.140755
			-0.621893 -0.676860 -0.393841
			-0.737382 -0.531855 -0.416411
			-0.887995 -0.398757 -0.229035
		</DataArray>
	</PointData>
	<Points>
		<DataArray type="Float32" NumberOfComponents="3" format="ascii">
			 0.162175  0.003350 -0.000344
			 0.162368  0.003563  0.000525
			 0.169003 -0.005142 -0.001087
			 0.159541  0.005029 -0.000376
			 0.156404  0.007591  0.002322
			 0.172182 -0.002036 -0.005412
			 0.170374  0.000896 -0.003971
			 0.172072 -0.004697 -0.003791
			 0.167451  0.002933 -0.004769
			 0.162254  0.005199 -0.001338
			 0.169545 -0.002939  0.001459
			 0.170826  0.006998  0.003694
			 0.170537 -0.003892  0.002303
			 0.174236 -0.005947 -0.001135
			 0.173249 -0.005167 -0.003709
			 0.172154 -0.005194 -0.000587
			 0.152218  0.014611 -0.000566
			 0.139095  0.014758  0.001083
			 0.132123  0.017559  0.005487
			 0.139332  0.018597  0.006570
			 0.176818 -0.002213 -0.005555
			 0.178164  0.002655 -0.004582
			 0.168306  0.005548 -0.005091
			 0.169616  0.007425 -0.004068
			 0.163996  0.007720 -0.002558
			 0.153949  0.016765  0.001117
			 0.168371  0.009942  0.001559
			 0.172564  0.007910  0.003080
			 0.178666  0.005147  0.001218
			 0.177068 -0.002223  0.002965
			 0.175252 -0.004385  0.002877
			 0.150040  0.017381  0.005293
			 0.175757 -0.005328  0.001593
			 0.177217 -0.004097  0.001979
			 0.164505  0.008645 -0.002184
			 0.163967  0.011939  0.000438
			 0.138388  0.018323  0.000425
			 0.136606  0.024927  0.002335
			 0.127716  0.017072  0.001765
			 0.134501  0.021721  0.007864
			 0.119633  0.020093  0.010216
			 0.129308  0.019387  0.008365
			 0.135231  0.024270  0.007081
			 0.179798 -0.000310 -0.003679
			 0.179822  0.003222 -0.001514
			 0.177371  0.005975 -0.000838
			 0.180212  0.000044  0.001038
			 0.120317  0.033638  0.005689
			 0.118414  0.033401  0.002634
			 0.122000  0.025860 -0.001667
			 0.118630  0.019809  0.005849
			 0.131229  0.025283  0.008312
			 0.112823  0.019599  0.010737
			 0.114161  0.020913  0.011672
			 0.121718  0.024253  0.011145
			 0.124313  0.025538  0.010907
			 0.180531  0.000582 -0.001320
			 0.118792  0.032305  0.011271
			 0.112217  0.034894  0.010805
			 0.112713  0.035182  0.006268
			 0.112655  0.028875 -0.002506
			 0.111653  0.034307  0.001092
			 0.116730  0.022376  0.003970
			 0.113550  0.022254  0.005113
			 0.113558  0.023098  0.002845
			 0.112285  0.021463  0.005130
			 0.110612  0.026773  0.000346
			 0.109656  0.021321  0.010286
			 0.121206  0.025053  0.011160
			 0.119979  0.027860  0.012357
			 0.119484  0.028503  0.012609
			 0.111039  0.028857  0.011184
			 0.122362  0.025662  0.011478
			 0.114062  0.032209  0.012835
			 0.110264  0.028276  0.000126
			 0.111842  0.032920  0.011951
			 0.111871  0.033966  0.006826
			 0.110012  0.029817 -0.000600
			 0.111627  0.021529  0.007014
			 0.111833  0.021563  0.005544
			 0.110011  0.024331  0.003504
			 0.109454  0.022634  0.008235
		</DataArray>
	</Points>
			<Polys>
				<DataArray type="Int32" Name="connectivity" format="ascii">
					2 1 0 
					0 4 3 
					6 5 0 
					4 0 1 
					5 7 0 
					8 6 0 
					9 8 0 
					0 3 9 
					7 2 0 
					2 10 1 
					1 11 4 
					1 12 11 
					12 1 10 
					2 14 13 
					15 10 2 
					2 13 15 
					2 7 14 
					3 16 9 
					3 18 17 
					18 3 4 
					16 3 17 
					4 19 18 
					19 4 11 
					6 20 5 
					5 20 7 
					6 21 20 
					6 8 22 
					22 23 6 
					6 23 21 
					14 7 20 
					22 8 9 
					16 24 9 
					24 22 9 
					15 12 10 
					11 26 25 
					26 11 27 
					11 29 28 
					11 30 29 
					27 11 28 
					11 12 30 
					11 25 31 
					19 11 31 
					15 30 12 
					13 32 15 
					14 20 13 
					33 32 13 
					33 13 20 
					15 32 30 
					16 35 34 
					16 25 35 
					34 24 16 
					16 17 36 
					36 37 16 
					16 37 25 
					38 17 18 
					36 17 38 
					19 39 18 
					40 38 18 
					39 41 18 
					40 18 41 
					19 42 39 
					42 19 31 
					43 20 21 
					33 20 43 
					44 43 21 
					45 44 21 
					23 45 21 
					34 35 22 
					24 34 22 
					23 22 35 
					35 26 23 
					23 26 45 
					37 31 25 
					26 35 25 
					27 45 26 
					28 45 27 
					44 28 46 
					45 28 44 
					46 28 29 
					33 46 29 
					30 33 29 
					30 32 33 
					37 47 31 
					42 31 47 
					46 33 43 
					36 49 48 
					37 36 48 
					49 36 38 
					37 48 47 
					38 40 50 
					50 49 38 
					42 51 39 
					41 39 51 
					40 52 50 
					40 53 52 
					54 53 40 
					54 40 55 
					41 55 40 
					55 41 51 
					47 51 42 
					43 44 56 
					56 46 43 
					56 44 46 
					57 51 47 
					59 58 47 
					57 47 58 
					59 47 48 
					60 48 49 
					59 48 61 
					60 61 48 
					63 49 62 
					65 64 49 
					63 65 49 
					66 49 64 
					66 60 49 
					50 62 49 
					50 52 62 
					51 57 55 
					67 52 53 
					52 67 62 
					68 53 54 
					69 53 68 
					53 69 70 
					70 71 53 
					71 67 53 
					68 54 72 
					54 55 72 
					57 72 55 
					57 73 70 
					70 69 57 
					69 72 57 
					73 57 58 
					58 74 71 
					75 58 71 
					76 74 58 
					73 58 75 
					59 76 58 
					61 76 59 
					77 60 74 
					77 61 60 
					74 60 66 
					77 76 61 
					67 78 62 
					63 62 78 
					63 78 65 
					65 79 64 
					64 80 66 
					64 81 80 
					79 81 64 
					79 65 78 
					74 66 80 
					67 81 78 
					81 67 71 
					68 72 69 
					70 73 71 
					71 74 81 
					71 73 75 
					80 81 74 
					76 77 74 
					81 79 78 
				</DataArray>
				<DataArray type="Int32" Name="offsets" format="ascii">
					3 6 9 12 15 18 21 24 27 30 33 36 39 42 45 48 51 54 57 60 63 66 69 72 75 78 81 84 87 90 93 96 99 102 105 108 111 114 117 120 123 126 129 132 135 138 141 144 147 150 153 156 159 162 165 168 171 174 177 180 183 186 189 192 195 198 201 204 207 210 213 216 219 222 225 228 231 234 237 240 243 246 249 252 255 258 261 264 267 270 273 276 279 282 285 288 291 294 297 300 303 306 309 312 315 318 321 324 327 330 333 336 339 342 345 348 351 354 357 360 363 366 369 372 375 378 381 384 387 390 393 396 399 402 405 408 411 414 417 420 423 426 429 432 435 438 441 444 447 450 453 456 459 462 465 468 471 474 477 480 
				</DataArray>
			</Polys>
		</Piece>
	</PolyData>
</VTKFile>
