<?xml version="1.0"?>
<VTKFile type="PolyData" version="0.1" byte_order="LittleEndian" compressor="vtkZLibDataCompressor">
	<PolyData>
		<Piece NumberOfPoints="382" NumberOfVerts="0" NumberOfLines="0" NumberOfStrips="0" NumberOfPolys="760">
		<PointData Normals="Normals">
		<DataArray type="Float32" Name="Normals" NumberOfComponents="3" format="ascii">
			-0.041911  0.383056 -0.922774
			-0.216810 -0.017331 -0.976060
			-0.023287  0.382860 -0.923513
			 0.052778  0.714319 -0.697827
			-0.065883  0.337108 -0.939158
			-0.273294 -0.310402 -0.910473
			-0.229949 -0.268808 -0.935342
			-0.159632 -0.011710 -0.987107
			-0.063201 -0.232502 -0.970540
			-0.023050  0.115737 -0.993012
			 0.202441  0.462827 -0.863023
			 0.179583  0.863152 -0.471930
			 0.102764  0.917790 -0.383537
			 0.130887  0.949707 -0.284472
			-0.062476  0.654303 -0.753647
			 0.105596  0.802415 -0.587350
			 0.131578  0.016489 -0.991169
			 0.105167  0.584237 -0.804740
			-0.489693 -0.674318 -0.552717
			-0.161690 -0.399158 -0.902513
			-0.365893 -0.500366 -0.784701
			-0.244195 -0.460876 -0.853207
			-0.112425 -0.410450 -0.904926
			-0.163964 -0.397540 -0.902817
			-0.009999 -0.323785 -0.946078
			 0.030917 -0.318932 -0.947273
			-0.140116 -0.246991 -0.958834
			 0.003917  0.214289 -0.976762
			-0.007949 -0.091393 -0.995783
			 0.315551  0.265537 -0.910998
			 0.289032  0.864266 -0.411709
			 0.467736  0.787683 -0.400972
			 0.426480  0.676190 -0.600734
			 0.363730  0.473979 -0.801901
			 0.303116  0.888853  0.343600
			 0.206638  0.926363  0.314884
			 0.308914  0.949444 -0.055926
			 0.322348  0.879852 -0.349217
			 0.021611  0.988604  0.148982
			 0.017961  0.997452  0.069050
			 0.097495  0.973308  0.207766
			 0.144007  0.940482  0.307824
			 0.528739  0.668984 -0.522393
			 0.357454 -0.027483 -0.933526
			 0.557573  0.254569 -0.790131
			 0.121112 -0.249074 -0.960882
			-0.742917 -0.622286 -0.246646
			-0.652713 -0.748006 -0.120219
			-0.328310 -0.798650 -0.504352
			-0.520061 -0.668104 -0.532141
			-0.597627 -0.654201 -0.463533
			-0.461405 -0.881709 -0.098464
			-0.348497 -0.833109 -0.429510
			-0.200700 -0.654668 -0.728786
			-0.368342 -0.714112 -0.595289
			-0.048022 -0.250002 -0.967054
			 0.275494 -0.492631 -0.825480
			 0.266871 -0.212469 -0.940020
			 0.208427 -0.270673 -0.939837
			-0.318224 -0.793726 -0.518394
			-0.290148 -0.769925 -0.568357
			 0.166305 -0.254713 -0.952609
			-0.133890 -0.713783 -0.687449
			 0.300815  0.289753 -0.908600
			 0.432424  0.885347  0.170790
			 0.458138  0.886500 -0.065019
			 0.559660  0.825918  0.068120
			 0.137228  0.743259 -0.654778
			 0.216294  0.886661 -0.408716
			-0.000287  0.527676 -0.849446
			 0.372943  0.730932  0.571534
			 0.171029  0.399166  0.900786
			 0.272784  0.428887  0.861188
			 0.430976  0.468338  0.771310
			 0.088211  0.582413  0.808092
			 0.112384  0.244426  0.963133
			 0.553326  0.806089 -0.209882
			 0.129484  0.941028  0.312569
			 0.319257  0.908604  0.269286
			 0.598467  0.795340  0.096286
			 0.068337  0.811988  0.579660
			-0.068221  0.874305  0.480559
			 0.859524  0.325688 -0.393887
			 0.834466  0.535013 -0.132013
			 0.547063  0.156285 -0.822372
			 0.648516 -0.094131 -0.755358
			 0.763795  0.170986 -0.622399
			-0.712901 -0.700765  0.026475
			-0.650846 -0.756955  0.058472
			-0.583114 -0.789894 -0.189857
			-0.326790 -0.912479 -0.246152
			-0.409491 -0.893181  0.185863
			-0.314745 -0.949044  0.015846
			-0.101729 -0.908061 -0.406295
			 0.303496 -0.714716 -0.630136
			 0.450414 -0.314730 -0.835507
			 0.682321 -0.674429 -0.282106
			 0.590818 -0.386894 -0.707989
			 0.685502 -0.566794 -0.456981
			-0.222439 -0.968484 -0.112074
			-0.154129 -0.903530 -0.399848
			-0.007543 -0.307190 -0.951618
			 0.048796 -0.695231 -0.717128
			 0.102034 -0.870268 -0.481895
			-0.174487  0.199794 -0.964177
			 0.514974  0.743994  0.425764
			 0.486026  0.713949  0.504039
			 0.050852  0.983885 -0.171416
			 0.282464  0.946659  0.155084
			 0.441208  0.721529  0.533602
			 0.546802  0.734780  0.401380
			-0.230437  0.763632 -0.603130
			-0.071818  0.902880 -0.423852
			-0.429701  0.524070 -0.735328
			 0.246439  0.111643  0.962707
			 0.164033 -0.336444  0.927307
			 0.068590 -0.269645  0.960514
			 0.331149  0.098024  0.938473
			 0.574113  0.556451  0.600630
			 0.383786 -0.224586  0.895695
			 0.519992  0.124692  0.845021
			-0.154027  0.047782  0.986911
			 0.034198  0.630708  0.775267
			-0.048978 -0.178377  0.982742
			-0.001186 -0.314003  0.949421
			 0.040032  0.840138  0.540893
			 0.283119  0.820053  0.497349
			 0.578662  0.697432  0.422775
			 0.305732  0.676190  0.670295
			 0.842128  0.491324  0.222308
			-0.007129  0.739200  0.673449
			-0.103432  0.784808  0.611047
			 0.975529  0.189659 -0.111229
			 0.962550 -0.118423 -0.243871
			 0.949745  0.311057  0.035033
			 0.855467 -0.375190 -0.356944
			-0.671166 -0.661888  0.333825
			-0.635757 -0.534876  0.556526
			-0.607773 -0.656711  0.446478
			-0.545558 -0.782672  0.299651
			-0.446833 -0.892652  0.059271
			-0.126966 -0.991611  0.024213
			-0.140750 -0.980073  0.140166
			-0.261341 -0.870919  0.416174
			-0.338081 -0.744623  0.575533
			-0.468893 -0.665716  0.580484
			-0.216596 -0.938962  0.267277
			-0.002115 -0.994781 -0.102008
			 0.351743 -0.901359 -0.252642
			 0.532420 -0.835202  0.137722
			 0.713563 -0.699569  0.037819
			 0.845514 -0.518762 -0.126455
			-0.044016 -0.994615  0.093828
			-0.143960 -0.954592  0.260825
			-0.065083 -0.971520 -0.227844
			-0.163225 -0.050244 -0.985309
			-0.180899 -0.414124 -0.892063
			 0.050928 -0.664282 -0.745745
			-0.235004 -0.592842 -0.770268
			 0.239820 -0.751129 -0.615054
			 0.290137 -0.928335 -0.232409
			-0.387220  0.241555 -0.889782
			 0.427156  0.711091  0.558469
			 0.314643  0.833026  0.455046
			 0.396923  0.693608  0.601132
			-0.295778  0.925026 -0.238416
			-0.405309  0.913694  0.029814
			-0.357094  0.746539  0.561393
			 0.014456  0.819572  0.572794
			-0.420053  0.728803 -0.540741
			-0.319719  0.853040 -0.412435
			-0.674065  0.350273 -0.650343
			-0.686183  0.543046 -0.483998
			 0.290519 -0.369675  0.882575
			 0.068166 -0.626917  0.776098
			-0.007479 -0.703412  0.710743
			 0.151224 -0.691017  0.706843
			-0.105703 -0.700213  0.706066
			 0.469997  0.450654  0.758956
			 0.373476 -0.561834  0.738145
			 0.229407 -0.736488  0.636363
			 0.293543 -0.033604  0.955355
			 0.299490 -0.284720  0.910626
			 0.454900  0.262568  0.850955
			-0.208251 -0.572500  0.793016
			-0.348546 -0.467459  0.812403
			-0.213409  0.345122  0.913973
			-0.024894  0.676538  0.735986
			 0.236177  0.690921  0.683264
			 0.316700  0.586136  0.745752
			 0.713825  0.545192  0.439567
			 0.459910  0.557076  0.691484
			 0.220171  0.519966  0.825324
			 0.927259  0.327815  0.180909
			 0.845711  0.329578  0.419703
			 0.000912  0.675784  0.737099
			 0.995247 -0.004757  0.097265
			 0.978872 -0.201231  0.036263
			 0.829306 -0.540145  0.143164
			 0.945388 -0.017902  0.325455
			-0.328920 -0.734866  0.593114
			-0.456371 -0.732812  0.504690
			-0.580520 -0.667836  0.465824
			-0.054978 -0.915669  0.398155
			 0.110007 -0.987821  0.110037
			-0.565912 -0.546472  0.617342
			-0.464569 -0.474538  0.747656
			 0.237436 -0.778744  0.580674
			 0.506455 -0.734987  0.450885
			 0.300069 -0.950920  0.075558
			-0.011808 -0.857821  0.513812
			 0.121623 -0.904200  0.409427
			-0.556532 -0.278597 -0.782723
			-0.511422  0.171765 -0.841989
			-0.312903 -0.652180 -0.690473
			-0.218698 -0.539385 -0.813163
			-0.560041 -0.641874 -0.523786
			-0.622400 -0.398779 -0.673494
			 0.205417 -0.875057 -0.438268
			-0.240077 -0.682086 -0.690740
			 0.404919 -0.783166 -0.471903
			 0.400329 -0.898741 -0.178892
			-0.114540  0.871649  0.476559
			 0.149597  0.798216  0.583500
			 0.075080  0.803273  0.590860
			 0.191701  0.583103  0.789457
			-0.689796  0.706626 -0.157673
			-0.861290  0.507285  0.029012
			-0.910670  0.356045  0.209551
			-0.742926  0.363011  0.562392
			-0.500436  0.651032  0.570720
			-0.686561  0.724642  0.059405
			-0.520874  0.740201 -0.425197
			-0.904667  0.236722 -0.354317
			-0.932851  0.236527 -0.271743
			-0.807711  0.572233 -0.141960
			-0.922617  0.385665 -0.006388
			 0.227166  0.220755  0.948506
			 0.307944 -0.880149  0.361260
			 0.438612 -0.604552  0.664933
			 0.451831 -0.814491  0.363941
			 0.172623 -0.108032  0.979046
			 0.376606 -0.267014  0.887058
			-0.432930 -0.441850  0.785710
			-0.350933 -0.385524  0.853356
			-0.113192 -0.053749  0.992118
			-0.023911  0.727169  0.686041
			 0.218115  0.666382  0.712994
			 0.566945  0.394555  0.723118
			 0.227303  0.628025  0.744257
			 0.028817  0.796305  0.604209
			 0.896382 -0.283516  0.340761
			 0.863223 -0.411335  0.292659
			 0.538063 -0.729627  0.422057
			 0.819319 -0.380282  0.429070
			 0.772021 -0.032492  0.634766
			-0.008233 -0.618969  0.785372
			-0.056901 -0.685198  0.726131
			-0.195142 -0.755156  0.625827
			-0.150673 -0.945366  0.289104
			-0.223744 -0.913400  0.340056
			-0.512585 -0.673649  0.532403
			-0.352826 -0.460816  0.814348
			-0.362094 -0.463462  0.808759
			 0.212446 -0.778413  0.590711
			 0.388358 -0.916917  0.091876
			-0.630442 -0.685020 -0.365089
			-0.973799 -0.216214 -0.070478
			-0.594835 -0.689361 -0.413463
			-0.845936 -0.368987 -0.385021
			-0.791833 -0.559675 -0.244465
			-0.619263 -0.429391 -0.657371
			-0.873099 -0.174136 -0.455383
			-0.796109 -0.329359 -0.507675
			-0.174870 -0.944888 -0.276780
			 0.166442 -0.974652 -0.149499
			-0.588360 -0.689097 -0.423058
			-0.419268  0.740325  0.525485
			-0.480262  0.801082  0.357234
			-0.109236  0.760207  0.640432
			-0.024614  0.667154  0.744513
			 0.098730  0.407776  0.907728
			-0.942449  0.331714  0.041909
			-0.941485  0.291167  0.169785
			-0.767726  0.555642  0.319153
			-0.678287  0.680864  0.276318
			-0.922184  0.341718 -0.181122
			-0.908554  0.410578  0.077171
			-0.965131  0.251339 -0.073147
			-0.997785  0.022109  0.062735
			-0.993805  0.089611  0.065734
			-0.931922  0.311729  0.185325
			 0.164130  0.146150  0.975552
			 0.355887 -0.651791  0.669710
			 0.395037 -0.848160  0.352944
			 0.291568  0.051878  0.955142
			 0.122913 -0.487414  0.864477
			 0.350486 -0.241576  0.904876
			-0.012342  0.057513  0.998269
			-0.089800 -0.508024  0.856649
			 0.142992 -0.654895  0.742069
			 0.117267  0.193508  0.974065
			 0.059040  0.765245  0.641026
			 0.319193  0.642044  0.697062
			 0.428784  0.530523  0.731225
			 0.394015  0.525444  0.754096
			 0.487446  0.444971  0.751263
			 0.436500  0.387793  0.811840
			 0.736806 -0.371611  0.564821
			 0.803069 -0.300069  0.514819
			 0.614215 -0.683291  0.394784
			 0.338035 -0.874151  0.348702
			 0.737444 -0.470376  0.484689
			 0.683707 -0.252931  0.684522
			-0.052524 -0.887007  0.458760
			 0.028321 -0.964703  0.261814
			-0.015217 -0.949889  0.312218
			-0.124672 -0.762566  0.634783
			-0.312782 -0.751394  0.581012
			-0.068257 -0.399253  0.914296
			 0.249297 -0.924295  0.289016
			-0.171026 -0.975586 -0.137779
			 0.105842 -0.993761  0.035173
			-0.785532 -0.596013 -0.166456
			-0.937158 -0.344684 -0.054114
			-0.975274 -0.018737 -0.220203
			-0.946626 -0.264437 -0.184314
			-0.926761 -0.168562 -0.335709
			-0.673160 -0.676369 -0.298964
			-0.189969  0.591194  0.783838
			-0.747980  0.610599  0.260184
			-0.973369  0.218216  0.070245
			-0.945930  0.065549 -0.317678
			-0.986794  0.004310  0.161924
			-0.955794  0.045789 -0.290448
			-0.920407  0.326478  0.215089
			-0.919283  0.372785  0.126298
			-0.990497  0.128631 -0.048689
			-0.999908 -0.009216 -0.009898
			-0.288587  0.452846  0.843592
			-0.180034 -0.877032  0.445424
			-0.256798 -0.764351  0.591458
			 0.142949 -0.951647  0.271907
			-0.244257  0.291886  0.924738
			-0.078375 -0.143241  0.986580
			-0.603588 -0.380482  0.700654
			-0.667056  0.328641  0.668605
			-0.624922  0.131399  0.769550
			 0.242781 -0.619349  0.746635
			 0.175844 -0.463753  0.868338
			 0.401273 -0.100072  0.910475
			 0.600854 -0.135431  0.787803
			 0.489240 -0.514246  0.704411
			 0.311971  0.503148  0.805926
			 0.528601  0.271898  0.804147
			 0.586965  0.145754  0.796384
			 0.419864 -0.429214  0.799681
			 0.632345 -0.374832  0.677968
			 0.689489 -0.297342  0.660449
			 0.462361 -0.752554  0.468919
			 0.498258 -0.083812  0.862968
			 0.220783 -0.936622  0.272020
			 0.196169 -0.657507  0.727463
			-0.390396 -0.897251 -0.206233
			-0.588517 -0.765601 -0.259815
			-0.185228 -0.980418 -0.066866
			-0.969933  0.126941 -0.207642
			-0.871243 -0.395586 -0.290596
			-0.787772 -0.529932 -0.313986
			-0.839091  0.460408  0.289744
			-0.921204 -0.362157  0.142218
			-0.896698 -0.439938 -0.048864
			-0.891275 -0.401549 -0.210683
			-0.693433 -0.609963  0.383530
			-0.655518  0.410574  0.633818
			-0.323972 -0.943966  0.063014
			-0.664843 -0.696606  0.269674
			-0.647331 -0.760758  0.047009
			 0.425287 -0.534555  0.730330
			 0.745057  0.006393  0.666970
			-0.512617 -0.822001 -0.248069
			-0.682179 -0.703917 -0.197818
		</DataArray>
	</PointData>
	<Points>
		<DataArray type="Float32" NumberOfComponents="3" format="ascii">
			 0.165800  0.007329 -0.034820
			 0.165405  0.005885 -0.034902
			 0.159097  0.009977 -0.033203
			 0.169135  0.010520 -0.031877
			 0.171463  0.005288 -0.035749
			 0.162394  0.004573 -0.033666
			 0.167457  0.003838 -0.035171
			 0.160702  0.007313 -0.033629
			 0.169424  0.004459 -0.035562
			 0.156491  0.008889 -0.033397
			 0.134801  0.018169 -0.031096
			 0.156188  0.014303 -0.029363
			 0.173436  0.012370 -0.028771
			 0.158941  0.014024 -0.029117
			 0.172769  0.008742 -0.033522
			 0.175852  0.010067 -0.032141
			 0.174347  0.005112 -0.035848
			 0.175403  0.008091 -0.034429
			 0.160776  0.000923 -0.029794
			 0.158047  0.006308 -0.033556
			 0.167323 -0.004079 -0.030566
			 0.167225  0.002660 -0.034545
			 0.168060  0.003342 -0.035093
			 0.169488 -0.000369 -0.033211
			 0.173911  0.003926 -0.035463
			 0.174139  0.004500 -0.035721
			 0.145864  0.010718 -0.032751
			 0.141609  0.013693 -0.032248
			 0.134119  0.014908 -0.032125
			 0.130711  0.019053 -0.031979
			 0.140772  0.018694 -0.028680
			 0.135775  0.020679 -0.028657
			 0.127933  0.025407 -0.029726
			 0.127853  0.022251 -0.031714
			 0.141542  0.019365 -0.024687
			 0.154394  0.015669 -0.024648
			 0.176095  0.013209 -0.024720
			 0.178287  0.011631 -0.028049
			 0.169931  0.013536 -0.024171
			 0.173217  0.013818 -0.023782
			 0.163912  0.014045 -0.024557
			 0.159247  0.014640 -0.024498
			 0.178666  0.009501 -0.031918
			 0.176616  0.003737 -0.035109
			 0.178071  0.007015 -0.034068
			 0.175235  0.003928 -0.035409
			 0.161858 -0.000935 -0.028868
			 0.160495  0.000818 -0.028758
			 0.157111  0.003052 -0.030955
			 0.165658 -0.003728 -0.029810
			 0.163654 -0.002677 -0.029011
			 0.156910  0.002992 -0.029934
			 0.152480  0.005185 -0.031094
			 0.170570 -0.004292 -0.031773
			 0.167111 -0.004606 -0.030069
			 0.175196 -0.000540 -0.034389
			 0.174909 -0.001489 -0.034140
			 0.176024  0.003265 -0.035194
			 0.176195  0.000623 -0.034587
			 0.142916  0.008707 -0.030897
			 0.138103  0.010799 -0.031002
			 0.130654  0.015589 -0.032496
			 0.133747  0.012102 -0.030356
			 0.127451  0.019987 -0.033415
			 0.136204  0.021242 -0.025004
			 0.126156  0.027902 -0.026499
			 0.132291  0.023584 -0.026010
			 0.125666  0.026419 -0.029904
			 0.125910  0.027282 -0.028258
			 0.125094  0.023329 -0.032413
			 0.136486  0.019095 -0.021745
			 0.146464  0.014192 -0.020336
			 0.140483  0.015375 -0.019884
			 0.135157  0.016459 -0.018248
			 0.156184  0.012565 -0.021178
			 0.151209  0.012835 -0.020505
			 0.179078  0.011275 -0.027659
			 0.173445  0.013618 -0.023139
			 0.176193  0.013057 -0.023777
			 0.178956  0.011850 -0.023681
			 0.163506  0.013075 -0.022886
			 0.167939  0.012750 -0.022746
			 0.180189  0.008401 -0.030289
			 0.179711  0.010847 -0.027209
			 0.178232  0.004599 -0.034025
			 0.178861  0.003285 -0.034108
			 0.179740  0.005386 -0.032715
			 0.163173 -0.002727 -0.028132
			 0.160412  0.000900 -0.027811
			 0.165153 -0.004370 -0.027970
			 0.167085 -0.005670 -0.027868
			 0.152287  0.005149 -0.027276
			 0.143340  0.008285 -0.027908
			 0.170690 -0.006016 -0.029734
			 0.175031 -0.003876 -0.032050
			 0.176656  0.000748 -0.034429
			 0.176452 -0.002883 -0.030965
			 0.178062  0.001224 -0.033703
			 0.177318 -0.001174 -0.032683
			 0.138025  0.009634 -0.027558
			 0.133883  0.011129 -0.028578
			 0.127240  0.016856 -0.033895
			 0.130007  0.011541 -0.029260
			 0.129875  0.011039 -0.028590
			 0.124370  0.020181 -0.033432
			 0.132218  0.022945 -0.023814
			 0.132008  0.021117 -0.020720
			 0.125394  0.028027 -0.026419
			 0.125328  0.027958 -0.024391
			 0.126596  0.026463 -0.022471
			 0.129160  0.025194 -0.022950
			 0.124996  0.026536 -0.029583
			 0.125186  0.027357 -0.028150
			 0.123371  0.023638 -0.031598
			 0.139727  0.013987 -0.019367
			 0.138978  0.012609 -0.019129
			 0.144923  0.012054 -0.020126
			 0.137209  0.014209 -0.018541
			 0.130756  0.018227 -0.016392
			 0.133983  0.013154 -0.017261
			 0.130061  0.017093 -0.014993
			 0.157751  0.009774 -0.020143
			 0.160940  0.012036 -0.021299
			 0.153340  0.010436 -0.020685
			 0.149354  0.010944 -0.020687
			 0.173643  0.013327 -0.022579
			 0.174931  0.013121 -0.022892
			 0.178695  0.011741 -0.022945
			 0.178361  0.011628 -0.022437
			 0.179474  0.010897 -0.023138
			 0.165957  0.011665 -0.021332
			 0.170167  0.012590 -0.022005
			 0.180939  0.007133 -0.028855
			 0.180491  0.004712 -0.031389
			 0.180475  0.009049 -0.025894
			 0.179522  0.002656 -0.032535
			 0.164942 -0.004198 -0.027134
			 0.164679 -0.003309 -0.026683
			 0.163056 -0.001458 -0.026543
			 0.160290  0.001123 -0.025938
			 0.166641 -0.005513 -0.026977
			 0.169648 -0.005947 -0.027793
			 0.167941 -0.005762 -0.026878
			 0.148406  0.007451 -0.024625
			 0.154706  0.005561 -0.023867
			 0.161107  0.003066 -0.022549
			 0.146160  0.008126 -0.024395
			 0.170955 -0.006163 -0.028879
			 0.173984 -0.005278 -0.030641
			 0.174259 -0.005299 -0.028522
			 0.177110 -0.002595 -0.029268
			 0.178449 -0.000964 -0.029491
			 0.133961  0.010389 -0.023230
			 0.141028  0.009235 -0.023958
			 0.133867  0.010416 -0.026814
			 0.122405  0.018510 -0.032903
			 0.122551  0.016677 -0.032740
			 0.127265  0.011512 -0.029945
			 0.124750  0.014227 -0.031517
			 0.126353  0.009558 -0.028060
			 0.129210  0.010099 -0.026167
			 0.122351  0.020227 -0.032882
			 0.128609  0.022944 -0.020566
			 0.127254  0.022323 -0.017383
			 0.126955  0.021082 -0.015067
			 0.124746  0.027986 -0.026468
			 0.124654  0.028007 -0.024506
			 0.124516  0.027706 -0.022458
			 0.124870  0.024589 -0.020629
			 0.124376  0.026495 -0.029309
			 0.124588  0.027336 -0.027926
			 0.121608  0.020157 -0.032243
			 0.122672  0.023812 -0.030755
			 0.136377  0.012849 -0.018250
			 0.138567  0.011456 -0.019863
			 0.144234  0.009989 -0.021193
			 0.136179  0.011854 -0.019184
			 0.149081  0.008905 -0.021836
			 0.127556  0.020068 -0.014634
			 0.129172  0.012774 -0.015347
			 0.133785  0.012089 -0.018163
			 0.127165  0.016699 -0.013337
			 0.127061  0.014103 -0.014068
			 0.128133  0.017930 -0.014077
			 0.153777  0.008291 -0.021581
			 0.157916  0.007207 -0.020926
			 0.161894  0.008825 -0.018915
			 0.171824  0.011669 -0.020633
			 0.174159  0.012276 -0.021368
			 0.175733  0.011809 -0.021853
			 0.179558  0.009914 -0.021937
			 0.179498  0.009275 -0.021138
			 0.177513  0.010869 -0.021937
			 0.180203  0.009062 -0.022569
			 0.179829  0.009204 -0.021546
			 0.170053  0.010129 -0.019630
			 0.180877  0.007179 -0.025275
			 0.180976  0.006414 -0.028293
			 0.178376 -0.000963 -0.026796
			 0.180418  0.008292 -0.022648
			 0.166568 -0.005343 -0.026261
			 0.166364 -0.002135 -0.024109
			 0.163761  0.000461 -0.023327
			 0.168861 -0.005665 -0.025978
			 0.171239 -0.006188 -0.028125
			 0.164461  0.001212 -0.021598
			 0.164625  0.003000 -0.020305
			 0.171357 -0.005356 -0.025965
			 0.174772 -0.003678 -0.026079
			 0.129478  0.010049 -0.022554
			 0.138233  0.010528 -0.020732
			 0.133592  0.011128 -0.019451
			 0.120781  0.016983 -0.032645
			 0.121528  0.018601 -0.032822
			 0.122146  0.015887 -0.031998
			 0.124816  0.011909 -0.030055
			 0.122569  0.014660 -0.031185
			 0.122588  0.012820 -0.028950
			 0.124297  0.007713 -0.026772
			 0.123306  0.008035 -0.027497
			 0.125832  0.008560 -0.027058
			 0.125315  0.007696 -0.025839
			 0.123908  0.023389 -0.017074
			 0.125186  0.021605 -0.015612
			 0.124971  0.020949 -0.014448
			 0.125122  0.020540 -0.014032
			 0.124202  0.027377 -0.027336
			 0.124267  0.027532 -0.024082
			 0.124162  0.027063 -0.022491
			 0.124157  0.025862 -0.021622
			 0.124304  0.024344 -0.020701
			 0.122499  0.022817 -0.017590
			 0.123994  0.026640 -0.028712
			 0.120977  0.018499 -0.032155
			 0.121022  0.019883 -0.031762
			 0.123623  0.026580 -0.028267
			 0.121926  0.023233 -0.029577
			 0.126304  0.018408 -0.013373
			 0.128911  0.010361 -0.018744
			 0.125063  0.010551 -0.015102
			 0.125409  0.009239 -0.017738
			 0.124201  0.015542 -0.013480
			 0.124734  0.012350 -0.014003
			 0.164816  0.004947 -0.018917
			 0.169260  0.005662 -0.015504
			 0.170778  0.005757 -0.015179
			 0.169911  0.007300 -0.016571
			 0.174503  0.009405 -0.019349
			 0.179230  0.008555 -0.020461
			 0.177902  0.009787 -0.021272
			 0.171379  0.008089 -0.017982
			 0.179685  0.003828 -0.024036
			 0.179240  0.001964 -0.024433
			 0.177144 -0.001170 -0.024569
			 0.179327  0.006587 -0.021653
			 0.178929  0.007533 -0.019895
			 0.169000 -0.005025 -0.025344
			 0.169780 -0.002870 -0.023848
			 0.168048 -0.002582 -0.023991
			 0.168232 -0.002301 -0.023376
			 0.168200 -0.001944 -0.021098
			 0.166833 -0.001642 -0.021503
			 0.168564 -0.001259 -0.020029
			 0.167798  0.002039 -0.019148
			 0.172955 -0.002671 -0.024397
			 0.123852  0.007139 -0.023466
			 0.121028  0.016212 -0.031762
			 0.120531  0.017001 -0.031857
			 0.121933  0.015193 -0.031119
			 0.121822  0.013921 -0.028539
			 0.121564  0.014893 -0.029593
			 0.122652  0.008610 -0.027375
			 0.121262  0.011508 -0.026513
			 0.122194  0.009137 -0.027191
			 0.123217  0.007392 -0.025974
			 0.124046  0.007247 -0.025190
			 0.122456  0.007770 -0.026201
			 0.121703  0.020741 -0.014844
			 0.123017  0.023007 -0.017195
			 0.123045  0.020604 -0.013958
			 0.123161  0.020167 -0.013504
			 0.123466  0.019782 -0.013220
			 0.124064  0.027098 -0.025771
			 0.123627  0.025354 -0.022644
			 0.123808  0.024024 -0.020947
			 0.121111  0.020571 -0.015290
			 0.120735  0.020002 -0.015276
			 0.123301  0.023370 -0.021070
			 0.121398  0.017292 -0.022632
			 0.120981  0.017105 -0.029661
			 0.120894  0.016088 -0.025849
			 0.123450  0.026112 -0.027985
			 0.123672  0.019044 -0.013094
			 0.121864  0.008865 -0.014256
			 0.121918  0.007350 -0.016689
			 0.119806  0.015197 -0.011609
			 0.117610  0.009985 -0.011501
			 0.118580  0.010906 -0.011531
			 0.118174  0.013091 -0.011027
			 0.170354  0.001512 -0.018696
			 0.172029  0.004263 -0.016539
			 0.172186  0.005844 -0.015028
			 0.172861  0.007485 -0.016528
			 0.177705  0.008783 -0.020222
			 0.177182  0.008077 -0.019064
			 0.174745  0.007153 -0.016809
			 0.176682  0.007777 -0.018646
			 0.178361  0.007837 -0.019672
			 0.177110  0.000870 -0.021339
			 0.179320  0.005397 -0.022388
			 0.176880 -0.000097 -0.022076
			 0.174935 -0.001458 -0.023314
			 0.178285  0.005884 -0.020710
			 0.178181  0.006482 -0.019215
			 0.169736 -0.002543 -0.023357
			 0.169836 -0.002330 -0.022804
			 0.169629 -0.002064 -0.020663
			 0.169682 -0.001798 -0.020172
			 0.168297 -0.001664 -0.020581
			 0.170166 -0.000485 -0.019181
			 0.172778 -0.002128 -0.023241
			 0.122763  0.006870 -0.022816
			 0.122432  0.006778 -0.020863
			 0.121231  0.015672 -0.030480
			 0.121224  0.015369 -0.029082
			 0.120893  0.012850 -0.025844
			 0.121472  0.014495 -0.028243
			 0.120660  0.010242 -0.024633
			 0.121655  0.007795 -0.024843
			 0.121212  0.018856 -0.012846
			 0.119560  0.017948 -0.012874
			 0.123897  0.025842 -0.025499
			 0.117312  0.009337 -0.014037
			 0.116825  0.010914 -0.011699
			 0.118471  0.008768 -0.017288
			 0.117395  0.012713 -0.011677
			 0.118038  0.014465 -0.011819
			 0.121080  0.014530 -0.023765
			 0.120991  0.014979 -0.024657
			 0.119596  0.017078 -0.011919
			 0.118042  0.008261 -0.013550
			 0.117795  0.009069 -0.012495
			 0.120632  0.007092 -0.016646
			 0.118830  0.015114 -0.011426
			 0.117680  0.011396 -0.011151
			 0.117069  0.010353 -0.011527
			 0.117990  0.013697 -0.011362
			 0.117369  0.011919 -0.011262
			 0.173910  0.003082 -0.017793
			 0.173380  0.001760 -0.018830
			 0.173402  0.005652 -0.015543
			 0.174668  0.005515 -0.016158
			 0.174904  0.004357 -0.017273
			 0.173667  0.006798 -0.016121
			 0.177875  0.007170 -0.019022
			 0.176367  0.006945 -0.018126
			 0.175347  0.001920 -0.019152
			 0.176003  0.003927 -0.018655
			 0.176557  0.005717 -0.018401
			 0.174905 -0.000663 -0.020526
			 0.177244  0.006436 -0.018673
			 0.172671 -0.001819 -0.020916
			 0.172748 -0.001203 -0.019817
			 0.121486  0.007062 -0.020953
			 0.120747  0.007526 -0.021058
			 0.120786  0.006816 -0.018680
			 0.120057  0.011076 -0.022010
			 0.118402  0.007852 -0.016615
			 0.120124  0.008355 -0.021466
			 0.118683  0.016105 -0.012179
			 0.116961  0.009845 -0.012629
			 0.117225  0.008941 -0.013665
			 0.117780  0.008329 -0.015059
			 0.117305  0.009446 -0.012563
			 0.118680  0.015660 -0.011781
			 0.119277  0.007047 -0.016444
			 0.117584  0.008546 -0.013616
			 0.118126  0.007907 -0.014988
			 0.175053  0.003224 -0.018334
			 0.175589  0.005978 -0.017111
			 0.119976  0.007220 -0.018751
			 0.118746  0.007424 -0.016539
		</DataArray>
	</Points>
			<Polys>
				<DataArray type="Int32" Name="connectivity" format="ascii">
					0 1 2 
					0 2 3 
					1 0 4 
					0 3 4 
					5 1 6 
					1 5 7 
					1 7 2 
					6 1 8 
					1 4 8 
					2 9 10 
					9 2 7 
					11 3 2 
					10 11 2 
					12 3 13 
					14 4 3 
					11 13 3 
					3 12 15 
					3 15 14 
					16 8 4 
					16 4 17 
					17 4 14 
					5 18 19 
					5 20 18 
					19 9 5 
					9 7 5 
					6 21 5 
					21 20 5 
					22 21 6 
					8 22 6 
					8 23 22 
					24 23 8 
					25 24 8 
					25 8 16 
					26 9 19 
					9 26 27 
					9 27 10 
					28 29 10 
					28 10 27 
					11 10 30 
					30 10 31 
					10 32 31 
					33 32 10 
					29 33 10 
					30 34 11 
					34 35 11 
					11 35 13 
					36 37 12 
					38 12 13 
					12 37 15 
					39 36 12 
					39 12 38 
					40 13 41 
					35 41 13 
					38 13 40 
					17 14 15 
					15 42 17 
					42 15 37 
					43 16 44 
					44 16 17 
					43 45 16 
					45 25 16 
					44 17 42 
					46 47 18 
					48 19 18 
					49 18 20 
					49 50 18 
					50 46 18 
					51 48 18 
					51 18 47 
					48 52 19 
					26 19 52 
					53 20 23 
					20 53 54 
					54 49 20 
					20 21 23 
					23 21 22 
					23 55 56 
					23 56 53 
					23 24 55 
					45 24 25 
					24 45 57 
					55 24 58 
					24 57 58 
					28 27 26 
					59 60 26 
					26 60 28 
					26 52 59 
					61 29 28 
					62 28 60 
					62 61 28 
					63 33 29 
					29 61 63 
					34 30 64 
					30 31 64 
					31 32 65 
					66 31 65 
					64 31 66 
					32 33 67 
					67 68 32 
					68 65 32 
					33 63 69 
					69 67 33 
					64 70 34 
					35 34 71 
					72 34 73 
					72 71 34 
					73 34 70 
					74 41 35 
					74 35 75 
					75 35 71 
					36 76 37 
					77 78 36 
					79 76 36 
					79 36 78 
					36 39 77 
					76 42 37 
					40 80 38 
					80 81 38 
					39 38 81 
					81 77 39 
					41 80 40 
					80 41 74 
					42 82 44 
					82 42 83 
					76 83 42 
					44 84 43 
					85 57 43 
					57 45 43 
					85 43 84 
					86 84 44 
					86 44 82 
					50 87 46 
					87 88 46 
					88 47 46 
					88 51 47 
					51 52 48 
					49 89 87 
					54 90 49 
					90 89 49 
					87 50 49 
					91 51 88 
					91 52 51 
					92 52 91 
					59 52 92 
					93 90 53 
					54 53 90 
					53 56 94 
					53 94 93 
					56 55 58 
					56 58 95 
					94 56 96 
					56 95 97 
					56 97 98 
					96 56 98 
					58 57 95 
					95 57 97 
					85 97 57 
					59 92 60 
					99 60 92 
					100 62 60 
					100 60 99 
					61 101 63 
					61 62 102 
					102 101 61 
					62 100 103 
					62 103 102 
					63 101 104 
					104 69 63 
					66 105 64 
					105 106 64 
					70 64 106 
					107 108 65 
					65 68 107 
					108 109 65 
					110 65 109 
					65 110 66 
					105 66 110 
					111 112 67 
					68 67 112 
					67 69 111 
					68 112 107 
					104 113 69 
					69 113 111 
					70 106 73 
					71 114 115 
					71 116 75 
					115 116 71 
					72 114 71 
					117 114 72 
					72 73 117 
					73 106 118 
					73 119 117 
					120 119 73 
					118 120 73 
					121 122 74 
					123 121 74 
					80 74 122 
					75 123 74 
					124 123 75 
					116 124 75 
					83 76 79 
					125 126 77 
					126 78 77 
					125 77 81 
					78 127 79 
					126 128 78 
					128 127 78 
					83 79 129 
					129 79 127 
					130 80 122 
					80 130 81 
					131 125 81 
					130 131 81 
					83 132 82 