<?xml version="1.0"?>
<VTKFile type="PolyData" version="0.1" byte_order="LittleEndian" compressor="vtkZLibDataCompressor">
	<PolyData>
		<Piece NumberOfPoints="69" NumberOfVerts="0" NumberOfLines="0" NumberOfStrips="0" NumberOfPolys="134">
		<PointData Normals="Normals">
		<DataArray type="Float32" Name="Normals" NumberOfComponents="3" format="ascii">
			 0.103106  0.153102  0.982817
			-0.570013 -0.339775  0.748090
			-0.250794 -0.458854  0.852382
			 0.259983  0.642984  0.720403
			 0.143715  0.180915  0.972942
			 0.443570  0.627895  0.639526
			-0.080268 -0.004395  0.996764
			 0.491343  0.493988  0.717327
			-0.695125 -0.610422  0.379718
			-0.658119 -0.730038 -0.184184
			-0.734862 -0.630046 -0.251039
			-0.643070 -0.516808  0.565129
			-0.431763 -0.889556 -0.149237
			 0.043852 -0.235470  0.970892
			 0.370696  0.668390  0.644856
			 0.525892  0.839788  0.134888
			 0.458981  0.039297  0.887577
			 0.325110 -0.280521  0.903112
			-0.174185 -0.560258  0.809796
			 0.464268  0.864904 -0.190777
			 0.683164  0.607725  0.404917
			-0.128916 -0.986664  0.099370
			-0.229179 -0.221169 -0.947925
			-0.347286 -0.591840 -0.727405
			-0.426487 -0.271680 -0.862728
			 0.030532 -0.761197 -0.647802
			-0.296088  0.236977 -0.925297
			-0.282342 -0.132677 -0.950094
			-0.240950 -0.925737 -0.291470
			-0.198906 -0.709253  0.676311
			 0.232287  0.638738 -0.733524
			 0.009793 -0.429943  0.902803
			 0.266431  0.302508  0.915152
			 0.307347  0.894211 -0.325459
			 0.403533  0.822813  0.400175
			 0.288362  0.747480 -0.598432
			 0.773798 -0.526120  0.352751
			 0.945532 -0.163771  0.281334
			 0.378162 -0.800812  0.464429
			 0.190101  0.409081 -0.892476
			 0.497005  0.781695 -0.376748
			 0.922576  0.101813 -0.372140
			 0.498499 -0.820453 -0.279921
			 0.520767 -0.220849 -0.824638
			 0.297056  0.400545 -0.866788
			 0.349513 -0.594779 -0.723933
			 0.036424  0.388617 -0.920679
			-0.211247 -0.873813 -0.437979
			 0.037406 -0.806473  0.590087
			-0.158873 -0.166248 -0.973201
			 0.331166  0.917708 -0.219412
			 0.169171  0.014090  0.985486
			 0.214868  0.648652  0.730125
			 0.793301 -0.561440 -0.235494
			-0.160284 -0.497526  0.852512
			-0.747859 -0.662208 -0.046768
			-0.849019 -0.414935 -0.327101
			-0.181312  0.488555 -0.853487
			-0.846533  0.341568 -0.408304
			-0.903338 -0.050182 -0.425983
			 0.021637  0.843934  0.536010
			-0.147258  0.976095  0.159855
			-0.658508  0.742141 -0.124875
			-0.042444 -0.158182  0.986497
			-0.133889 -0.112062  0.984640
			-0.080728  0.410800  0.908145
			-0.593950 -0.049120  0.803001
			-0.791018  0.324602  0.518578
			-0.430271  0.736004  0.522651
		</DataArray>
	</PointData>
	<Points>
		<DataArray type="Float32" NumberOfComponents="3" format="ascii">
			 0.158425  0.005231 -0.011871
			 0.154651 -0.000003 -0.013154
			 0.152590  0.001830 -0.013182
			 0.156752  0.006886 -0.012560
			 0.154954  0.007189 -0.012163
			 0.159524  0.006221 -0.012528
			 0.159378 -0.003006 -0.011468
			 0.161416  0.004334 -0.013321
			 0.157024 -0.004061 -0.012914
			 0.157298 -0.006345 -0.014644
			 0.152119  0.001263 -0.014426
			 0.157656 -0.004888 -0.012274
			 0.144905  0.005128 -0.013385
			 0.144916  0.008629 -0.010622
			 0.148110  0.011080 -0.011820
			 0.159703  0.006441 -0.013764
			 0.162020 -0.001035 -0.011783
			 0.161052 -0.003938 -0.011709
			 0.158521 -0.005109 -0.011973
			 0.160337  0.005568 -0.015520
			 0.163361  0.004179 -0.013999
			 0.159352 -0.006524 -0.014552
			 0.158566 -0.002802 -0.018021
			 0.158379 -0.005280 -0.016448
			 0.157079 -0.000277 -0.017243
			 0.159661 -0.005651 -0.016351
			 0.154986  0.005842 -0.016735
			 0.155391  0.001428 -0.017690
			 0.126366  0.012172 -0.012512
			 0.136089  0.009102 -0.010757
			 0.135072  0.017261 -0.012604
			 0.130398  0.013467 -0.008838
			 0.131657  0.017628 -0.008848
			 0.153476  0.009390 -0.014496
			 0.122034  0.023140 -0.009045
			 0.157084  0.007267 -0.016211
			 0.161514 -0.005247 -0.012759
			 0.164472 -0.000076 -0.014153
			 0.160784 -0.005879 -0.012578
			 0.159511  0.004193 -0.017162
			 0.162434  0.004900 -0.015521
			 0.164246  0.000587 -0.016674
			 0.160769 -0.005627 -0.015827
			 0.163198 -0.001527 -0.017683
			 0.161875  0.004058 -0.017281
			 0.161404 -0.004413 -0.017063
			 0.157345  0.005692 -0.017717
			 0.109687  0.015190 -0.008377
			 0.110775  0.015125 -0.005584
			 0.103577  0.023523 -0.014940
			 0.111547  0.028096 -0.009681
			 0.110774  0.021825 -0.004738
			 0.105022  0.028422 -0.005456
			 0.162286 -0.004158 -0.016327
			 0.103736  0.014757 -0.004654
			 0.101407  0.016124 -0.005310
			 0.100468  0.021667 -0.012267
			 0.101233  0.026576 -0.014183
			 0.100569  0.025415 -0.014037
			 0.099917  0.024421 -0.013411
			 0.104603  0.028940 -0.006179
			 0.103744  0.029365 -0.007196
			 0.102434  0.028560 -0.012528
			 0.104054  0.019305 -0.004568
			 0.103928  0.020514 -0.004182
			 0.104255  0.026559 -0.004251
			 0.101262  0.017557 -0.005334
			 0.102864  0.027060 -0.004825
			 0.103507  0.028837 -0.006067
		</DataArray>
	</Points>
			<Polys>
				<DataArray type="Int32" Name="connectivity" format="ascii">
					2 1 0 
					4 0 3 
					0 5 3 
					7 0 6 
					4 2 0 
					1 6 0 
					5 0 7 
					9 8 1 
					2 10 1 
					9 1 10 
					11 1 8 
					6 1 11 
					12 10 2 
					2 13 12 
					13 2 4 
					3 14 4 
					3 15 14 
					5 15 3 
					13 4 14 
					7 15 5 
					6 16 7 
					6 17 16 
					6 11 18 
					6 18 17 
					7 19 15 
					19 7 20 
					7 16 20 
					21 8 9 
					21 11 8 
					23 9 22 
					22 9 24 
					9 10 24 
					25 9 23 
					21 9 25 
					12 26 10 
					27 24 10 
					26 27 10 
					21 18 11 
					12 29 28 
					12 13 29 
					30 26 12 
					12 28 30 
					31 29 13 
					14 32 13 
					32 31 13 
					15 33 14 
					14 30 34 
					14 33 30 
					34 32 14 
					15 35 33 
					19 35 15 
					37 16 36 
					37 20 16 
					36 16 17 
					17 18 38 
					38 36 17 
					38 18 21 
					39 35 19 
					40 39 19 
					40 19 20 
					20 41 40 
					41 20 37 
					21 42 38 
					21 25 42 
					22 44 43 
					22 24 39 
					45 22 43 
					39 44 22 
					25 23 22 
					25 22 45 
					27 39 24 
					25 45 42 
					35 26 33 
					30 33 26 
					27 26 46 
					26 35 46 
					27 46 39 
					28 48 47 
					28 29 31 
					28 31 48 
					49 30 28 
					49 28 47 
					30 49 50 
					34 30 50 
					51 48 31 
					31 32 51 
					34 52 32 
					32 52 51 
					52 34 50 
					39 46 35 
					38 42 36 
					53 36 42 
					37 36 53 
					53 41 37 
					39 40 44 
					44 40 41 
					41 43 44 
					53 43 41 
					53 42 45 
					45 43 53 
					54 47 48 
					54 55 47 
					47 56 49 
					55 56 47 
					48 51 54 
					57 50 49 
					59 58 49 
					57 49 58 
					59 49 56 
					52 50 60 
					61 60 50 
					61 50 62 
					50 57 62 
					64 63 51 
					51 63 54 
					52 65 51 
					51 65 64 
					65 52 60 
					63 66 54 
					55 54 66 
					55 66 56 
					66 67 56 
					59 56 67 
					58 62 57 
					59 67 58 
					58 67 62 
					68 65 60 
					61 68 60 
					62 68 61 
					67 68 62 
					66 63 64 
					67 64 65 
					67 66 64 
					68 67 65 
				</DataArray>
				<DataArray type="Int32" Name="offsets" format="ascii">
					3 6 9 12 15 18 21 24 27 30 33 36 39 42 45 48 51 54 57 60 63 66 69 72 75 78 81 84 87 90 93 96 99 102 105 108 111 114 117 120 123 126 129 132 135 138 141 144 147 150 153 156 159 162 165 168 171 174 177 180 183 186 189 192 195 198 201 204 207 210 213 216 219 222 225 228 231 234 237 240 243 246 249 252 255 258 261 264 267 270 273 276 279 282 285 288 291 294 297 300 303 306 309 312 315 318 321 324 327 330 333 336 339 342 345 348 351 354 357 360 363 366 369 372 375 378 381 384 387 390 393 396 399 402 
				</DataArray>
			</Polys>
		</Piece>
	</PolyData>
</VTKFile>
