<?xml version="1.0"?>
<VTKFile type="PolyData" version="0.1" byte_order="LittleEndian" compressor="vtkZLibDataCompressor">
	<PolyData>
		<Piece NumberOfPoints="76" NumberOfVerts="0" NumberOfLines="0" NumberOfStrips="0" NumberOfPolys="148">
		<PointData Normals="Normals">
		<DataArray type="Float32" Name="Normals" NumberOfComponents="3" format="ascii">
			-0.737506 -0.671351  0.073301
			-0.486875 -0.835222 -0.255650
			-0.467913 -0.883025  0.036384
			-0.587727 -0.753940  0.293517
			-0.253046 -0.595824 -0.762208
			-0.260021 -0.532616  0.805425
			-0.395941 -0.363589 -0.843228
			-0.325723 -0.654911 -0.681906
			-0.274126 -0.165399  0.947364
			 0.124292 -0.980469  0.152423
			-0.379378 -0.914714  0.139176
			 0.031075 -0.079390 -0.996359
			 0.187464  0.176568 -0.966272
			 0.136240 -0.298543 -0.944622
			 0.390524 -0.521060  0.758939
			 0.341720 -0.119087 -0.932226
			 0.555179 -0.728578 -0.401187
			-0.339210  0.146489  0.929235
			-0.383262 -0.268450  0.883767
			-0.112897  0.427556  0.896911
			 0.646253 -0.114110  0.754543
			 0.515781  0.280054  0.809654
			 0.834128 -0.494776  0.243777
			-0.136811 -0.887590 -0.439848
			-0.249817 -0.287919  0.924497
			-0.273925 -0.649796  0.709034
			 0.416174  0.551556 -0.722901
			 0.416967  0.631542 -0.653677
			 0.346025  0.617331 -0.706519
			 0.208196  0.976072  0.062751
			 0.135803 -0.536829 -0.832690
			 0.305526  0.171223 -0.936662
			 0.833305  0.119785 -0.539679
			 0.909537 -0.278813 -0.308231
			-0.178056  0.648316  0.740258
			-0.173259  0.309589  0.934952
			 0.449171  0.636601  0.626885
			 0.210478  0.915786  0.342104
			 0.985271 -0.006052  0.170894
			 0.891056  0.406764  0.201402
			-0.008478 -0.957222 -0.289229
			-0.137539 -0.807912  0.573028
			 0.085606  0.553755  0.828268
			 0.551535  0.829585  0.087161
			 0.731533  0.587869 -0.345354
			 0.345274  0.871761 -0.347589
			 0.134498 -0.458877 -0.878261
			 0.293855  0.621149 -0.726514
			 0.096437 -0.004240 -0.995330
			-0.104299 -0.981828  0.158541
			-0.290974 -0.919297 -0.265005
			-0.226252 -0.498841  0.836641
			-0.079619 -0.141943  0.986668
			 0.162031  0.756456  0.633657
			 0.156018  0.987729 -0.007095
			-0.055662 -0.172349 -0.983462
			 0.012098  0.630814 -0.775840
			-0.250285  0.416549 -0.873982
			-0.254712  0.080100 -0.963694
			-0.033890 -0.318922 -0.947175
			-0.835585 -0.549180  0.014117
			-0.914917 -0.398210 -0.066001
			-0.038325 -0.139011 -0.989549
			-0.116077 -0.632872  0.765505
			-0.312941 -0.256998 -0.914341
			-0.002282  0.085944  0.996297
			-0.242257  0.757612  0.606082
			 0.073977  0.983975 -0.162239
			-0.627383  0.702381 -0.336231
			-0.248160  0.469024 -0.847604
			-0.084131  0.412869 -0.906897
			-0.630803  0.101448 -0.769283
			-0.663754  0.124983 -0.737435
			-0.642313  0.162466 -0.749025
			-0.715484  0.247218 -0.653426
			-0.775535 -0.071841  0.627204
		</DataArray>
	</PointData>
	<Points>
		<DataArray type="Float32" NumberOfComponents="3" format="ascii">
			 0.144795  0.000027  0.028074
			 0.148330 -0.002228  0.026773
			 0.148023 -0.003700  0.029026
			 0.141485  0.002893  0.027130
			 0.141629  0.003059  0.026440
			 0.148684 -0.002553  0.030676
			 0.146831  0.000161  0.025594
			 0.148390 -0.002330  0.025689
			 0.151261  0.000304  0.032210
			 0.150967 -0.004004  0.028808
			 0.135923  0.005566  0.024997
			 0.148727  0.002808  0.025232
			 0.141903  0.010016  0.023990
			 0.133238  0.010270  0.021825
			 0.153303 -0.000572  0.031819
			 0.152524  0.000197  0.025079
			 0.152634 -0.003070  0.026912
			 0.142520  0.007625  0.028905
			 0.137927  0.006429  0.026968
			 0.147057  0.008374  0.030607
			 0.154493  0.001688  0.031718
			 0.154007  0.004133  0.031672
			 0.154640 -0.000003  0.030096
			 0.130112  0.007728  0.023264
			 0.135436  0.007234  0.026499
			 0.129761  0.007713  0.025484
			 0.151776  0.007701  0.026416
			 0.149554  0.008792  0.024808
			 0.135440  0.012784  0.022903
			 0.142170  0.011374  0.025743
			 0.113201  0.013667  0.018328
			 0.110589  0.017727  0.016540
			 0.154597  0.004996  0.026649
			 0.154353 -0.000703  0.027443
			 0.143250  0.009613  0.028268
			 0.138879  0.009904  0.027404
			 0.153170  0.006352  0.030859
			 0.147833  0.009576  0.029279
			 0.155000  0.001902  0.030704
			 0.154682  0.005537  0.029211
			 0.111902  0.011392  0.020712
			 0.115993  0.011034  0.023883
			 0.125126  0.017060  0.023732
			 0.152897  0.007823  0.028526
			 0.154157  0.006583  0.026940
			 0.103605  0.023689  0.018266
			 0.102785  0.012799  0.015217
			 0.103168  0.021945  0.015936
			 0.101594  0.018675  0.014037
			 0.109963  0.011194  0.022863
			 0.095223  0.012693  0.015111
			 0.104709  0.012939  0.024324
			 0.100731  0.018744  0.023873
			 0.101353  0.023817  0.021390
			 0.096922  0.025865  0.018228
			 0.100810  0.016994  0.014491
			 0.094809  0.025805  0.016752
			 0.097083  0.022197  0.014540
			 0.094729  0.018702  0.013901
			 0.098459  0.017317  0.014548
			 0.088229  0.018759  0.022661
			 0.093156  0.013968  0.015987
			 0.098693  0.016631  0.014683
			 0.092609  0.018638  0.023878
			 0.093330  0.017888  0.014529
			 0.092928  0.020318  0.024683
			 0.088725  0.022807  0.023514
			 0.094678  0.026042  0.017246
			 0.092717  0.026000  0.016933
			 0.095096  0.019510  0.014949
			 0.093017  0.024768  0.015584
			 0.096181  0.022898  0.015044
			 0.095823  0.022523  0.015675
			 0.096310  0.021707  0.014917
			 0.093498  0.018844  0.014232
			 0.087653  0.020822  0.023906
		</DataArray>
	</Points>
			<Polys>
				<DataArray type="Int32" Name="connectivity" format="ascii">
					0 1 2 
					3 4 0 
					5 0 2 
					6 7 0 
					1 0 7 
					6 0 4 
					8 0 5 
					8 3 0 
					1 7 9 
					9 2 1 
					9 5 2 
					4 3 10 
					8 10 3 
					4 11 6 
					12 4 13 
					10 13 4 
					4 12 11 
					5 14 8 
					14 5 9 
					6 11 7 
					15 7 11 
					16 7 15 
					9 7 16 
					8 17 18 
					17 8 19 
					20 8 14 
					21 19 8 
					8 18 10 
					20 21 8 
					9 16 22 
					14 9 22 
					23 13 10 
					18 24 10 
					10 25 23 
					24 25 10 
					26 15 11 
					27 26 11 
					11 12 27 
					28 29 12 
					29 27 12 
					28 12 13 
					13 23 30 
					13 30 31 
					13 31 28 
					22 20 14 
					32 15 26 
					33 15 32 
					15 33 16 
					16 33 22 
					34 17 19 
					17 35 18 
					35 17 34 
					18 35 24 
					21 36 19 
					37 19 36 
					34 19 37 
					20 38 21 
					38 20 22 
					21 38 39 
					21 39 36 
					33 38 22 
					40 23 41 
					41 23 25 
					40 30 23 
					24 35 42 
					24 42 25 
					42 41 25 
					27 37 26 
					37 43 26 
					44 26 43 
					32 26 44 
					27 29 37 
					45 42 28 
					29 28 42 
					28 31 45 
					35 29 42 
					29 35 34 
					29 34 37 
					30 40 46 
					31 30 46 
					47 45 31 
					46 48 31 
					48 47 31 
					32 44 39 
					32 39 38 
					38 33 32 
					43 36 39 
					37 36 43 
					39 44 43 
					49 40 41 
					50 40 49 
					46 40 50 
					49 41 51 
					41 42 51 
					51 42 52 
					42 53 52 
					45 53 42 
					54 45 47 
					54 53 45 
					46 55 48 
					55 46 50 
					56 54 47 
					56 47 57 
					47 48 57 
					58 57 48 
					59 48 55 
					48 59 58 
					50 49 51 
					50 60 61 
					55 50 62 
					50 52 63 
					63 60 50 
					52 50 51 
					64 62 50 
					50 61 64 
					65 52 53 
					65 63 52 
					66 53 54 
					65 53 66 
					67 54 56 
					66 54 68 
					54 67 68 
					59 55 62 
					68 67 56 
					56 69 70 
					56 70 68 
					56 57 71 
					56 71 72 
					56 72 69 
					73 71 57 
					69 57 58 
					57 69 73 
					58 59 64 
					69 58 74 
					58 64 74 
					62 64 59 
					63 75 60 
					61 60 74 
					60 68 74 
					75 68 60 
					74 64 61 
					63 65 75 
					75 65 66 
					66 68 75 
					70 74 68 
					73 69 72 
					69 74 70 
					73 72 71 
				</DataArray>
				<DataArray type="Int32" Name="offsets" format="ascii">
					3 6 9 12 15 18 21 24 27 30 33 36 39 42 45 48 51 54 57 60 63 66 69 72 75 78 81 84 87 90 93 96 99 102 105 108 111 114 117 120 123 126 129 132 135 138 141 144 147 150 153 156 159 162 165 168 171 174 177 180 183 186 189 192 195 198 201 204 207 210 213 216 219 222 225 228 231 234 237 240 243 246 249 252 255 258 261 264 267 270 273 276 279 282 285 288 291 294 297 300 303 306 309 312 315 318 321 324 327 330 333 336 339 342 345 348 351 354 357 360 363 366 369 372 375 378 381 384 387 390 393 396 399 402 405 408 411 414 417 420 423 426 429 432 435 438 441 444 
				</DataArray>
			</Polys>
		</Piece>
	</PolyData>
</VTKFile>
