<?xml version="1.0"?>
<VTKFile type="PolyData" version="0.1" byte_order="LittleEndian" compressor="vtkZLibDataCompressor">
	<PolyData>
		<Piece NumberOfPoints="69" NumberOfVerts="0" NumberOfLines="0" NumberOfStrips="0" NumberOfPolys="134">
		<PointData Normals="Normals">
		<DataArray type="Float32" Name="Normals" NumberOfComponents="3" format="ascii">
			 0.103100  0.153095 -0.982819
			-0.570024 -0.339787 -0.748076
			-0.250806 -0.458862 -0.852374
			 0.259973  0.642981 -0.720409
			 0.143709  0.180900 -0.972946
			 0.443566  0.627906 -0.639518
			-0.080268 -0.004387 -0.996764
			 0.491337  0.493990 -0.717329
			-0.695124 -0.610439 -0.379694
			-0.658113 -0.730042  0.184192
			-0.734862 -0.630038  0.251057
			-0.643071 -0.516827 -0.565110
			-0.431765 -0.889552  0.149255
			 0.043851 -0.235473 -0.970891
			 0.370695  0.668385 -0.644861
			 0.525884  0.839794 -0.134880
			 0.458984  0.039295 -0.887575
			 0.325115 -0.280519 -0.903111
			-0.174183 -0.560252 -0.809802
			 0.464270  0.864904  0.190774
			 0.683172  0.607723 -0.404906
			-0.128917 -0.986664 -0.099371
			-0.229181 -0.221169  0.947924
			-0.347291 -0.591824  0.727416
			-0.426490 -0.271678  0.862727
			 0.030517 -0.761188  0.647813
			-0.296079  0.236983  0.925298
			-0.282344 -0.132674  0.950094
			-0.240950 -0.925734  0.291479
			-0.198909 -0.709261 -0.676302
			 0.232286  0.638734  0.733527
			 0.009793 -0.429943 -0.902803
			 0.266430  0.302506 -0.915153
			 0.307353  0.894211  0.325454
			 0.403534  0.822816 -0.400168
			 0.288363  0.747482  0.598429
			 0.773805 -0.526120 -0.352738
			 0.945531 -0.163776 -0.281334
			 0.378159 -0.800817 -0.464423
			 0.190097  0.409081  0.892477
			 0.497016  0.781685  0.376754
			 0.922573  0.101809  0.372147
			 0.498492 -0.820455  0.279927
			 0.520761 -0.220848  0.824642
			 0.297062  0.400547  0.866785
			 0.349508 -0.594770  0.723943
			 0.036428  0.388621  0.920677
			-0.211246 -0.873812  0.437982
			 0.037401 -0.806475 -0.590084
			-0.158877 -0.166246  0.973201
			 0.331164  0.917706  0.219421
			 0.169167  0.014087 -0.985487
			 0.214876  0.648643 -0.730131
			 0.793301 -0.561438  0.235500
			-0.160282 -0.497531 -0.852510
			-0.747857 -0.662210  0.046768
			-0.849019 -0.414935  0.327102
			-0.181322  0.488555  0.853485
			-0.846533  0.341572  0.408302
			-0.903339 -0.050186  0.425982
			 0.021614  0.843928 -0.536020
			-0.147296  0.976089 -0.159860
			-0.658511  0.742139  0.124873
			-0.042436 -0.158184 -0.986497
			-0.133888 -0.112065 -0.984640
			-0.080744  0.410790 -0.908148
			-0.593941 -0.049120 -0.803008
			-0.791018  0.324605 -0.518577
			-0.430306  0.735984 -0.522652
		</DataArray>
	</PointData>
	<Points>
		<DataArray type="Float32" NumberOfComponents="3" format="ascii">
			 0.158425  0.005231  0.011871
			 0.154651 -0.000003  0.013154
			 0.152590  0.001830  0.013182
			 0.156752  0.006886  0.012560
			 0.154954  0.007189  0.012163
			 0.159524  0.006221  0.012528
			 0.159378 -0.003006  0.011468
			 0.161416  0.004334  0.013321
			 0.157024 -0.004061  0.012914
			 0.157298 -0.006345  0.014644
			 0.152119  0.001263  0.014426
			 0.157656 -0.004888  0.012274
			 0.144905  0.005128  0.013385
			 0.144916  0.008629  0.010622
			 0.148110  0.011080  0.011820
			 0.159703  0.006441  0.013764
			 0.162020 -0.001035  0.011783
			 0.161052 -0.003938  0.011709
			 0.158521 -0.005109  0.011973
			 0.160337  0.005568  0.015520
			 0.163361  0.004179  0.013999
			 0.159352 -0.006524  0.014552
			 0.158566 -0.002802  0.018021
			 0.158379 -0.005280  0.016448
			 0.157079 -0.000277  0.017243
			 0.159661 -0.005651  0.016351
			 0.154986  0.005842  0.016735
			 0.155391  0.001428  0.017690
			 0.126366  0.012172  0.012512
			 0.136089  0.009102  0.010757
			 0.135072  0.017261  0.012604
			 0.130398  0.013467  0.008838
			 0.131657  0.017628  0.008848
			 0.153476  0.009390  0.014496
			 0.122034  0.023140  0.009045
			 0.157084  0.007267  0.016211
			 0.161514 -0.005247  0.012759
			 0.164472 -0.000076  0.014153
			 0.160784 -0.005879  0.012578
			 0.159511  0.004193  0.017162
			 0.162434  0.004900  0.015521
			 0.164246  0.000587  0.016674
			 0.160769 -0.005627  0.015827
			 0.163198 -0.001527  0.017683
			 0.161875  0.004058  0.017281
			 0.161404 -0.004413  0.017063
			 0.157345  0.005692  0.017717
			 0.109687  0.015190  0.008377
			 0.110775  0.015125  0.005584
			 0.103577  0.023523  0.014940
			 0.111547  0.028096  0.009681
			 0.110774  0.021825  0.004738
			 0.105022  0.028422  0.005456
			 0.162286 -0.004158  0.016327
			 0.103736  0.014757  0.004654
			 0.101407  0.016124  0.005310
			 0.100468  0.021667  0.012267
			 0.101233  0.026576  0.014183
			 0.100569  0.025415  0.014037
			 0.099917  0.024421  0.013411
			 0.104603  0.028940  0.006179
			 0.103744  0.029365  0.007196
			 0.102434  0.028560  0.012528
			 0.104054  0.019305  0.004568
			 0.103928  0.020514  0.004182
			 0.104255  0.026559  0.004251
			 0.101262  0.017557  0.005334
			 0.102864  0.027060  0.004825
			 0.103507  0.028837  0.006067
		</DataArray>
	</Points>
			<Polys>
				<DataArray type="Int32" Name="connectivity" format="ascii">
					0 1 2 
					3 0 4 
					3 5 0 
					6 0 7 
					0 2 4 
					0 6 1 
					7 0 5 
					1 8 9 
					1 10 2 
					10 1 9 
					8 1 11 
					11 1 6 
					2 10 12 
					12 13 2 
					4 2 13 
					4 14 3 
					14 15 3 
					3 15 5 
					14 4 13 
					5 15 7 
					7 16 6 
					16 17 6 
					18 11 6 
					17 18 6 
					15 19 7 
					20 7 19 
					20 16 7 
					9 8 21 
					8 11 21 
					22 9 23 
					24 9 22 
					24 10 9 
					23 9 25 
					25 9 21 
					10 26 12 
					10 24 27 
					10 27 26 
					11 18 21 
					28 29 12 
					29 13 12 
					12 26 30 
					30 28 12 
					13 29 31 
					13 32 14 
					13 31 32 
					14 33 15 
					34 30 14 
					30 33 14 
					14 32 34 
					33 35 15 
					15 35 19 
					36 16 37 
					16 20 37 
					17 16 36 
					38 18 17 
					17 36 38 
					21 18 38 
					19 35 39 
					19 39 40 
					20 19 40 
					40 41 20 
					37 20 41 
					38 42 21 
					42 25 21 
					43 44 22 
					39 24 22 
					43 22 45 
					22 44 39 
					22 23 25 
					45 22 25 
					24 39 27 
					42 45 25 
					33 26 35 
					26 33 30 
					46 26 27 
					46 35 26 
					39 46 27 
					47 48 28 
					31 29 28 
					48 31 28 
					28 30 49 
					47 28 49 
					50 49 30 
					50 30 34 
					31 48 51 
					51 32 31 
					32 52 34 
					51 52 32 
					50 34 52 
					35 46 39 
					36 42 38 
					42 36 53 
					53 36 37 
					37 41 53 
					44 40 39 
					41 40 44 
					44 43 41 
					41 43 53 
					45 42 53 
					53 43 45 
					48 47 54 
					47 55 54 
					49 56 47 
					47 56 55 
					54 51 48 
					49 50 57 
					49 58 59 
					58 49 57 
					56 49 59 
					60 50 52 
					50 60 61 
					62 50 61 
					62 57 50 
					51 63 64 
					54 63 51 
					51 65 52 
					64 65 51 
					60 52 65 
					54 66 63 
					66 54 55 
					56 66 55 
					56 67 66 
					67 56 59 
					57 62 58 
					58 67 59 
					62 67 58 
					60 65 68 
					60 68 61 
					61 68 62 
					62 68 67 
					64 63 66 
					65 64 67 
					64 66 67 
					65 67 68 
				</DataArray>
				<DataArray type="Int32" Name="offsets" format="ascii">
					3 6 9 12 15 18 21 24 27 30 33 36 39 42 45 48 51 54 57 60 63 66 69 72 75 78 81 84 87 90 93 96 99 102 105 108 111 114 117 120 123 126 129 132 135 138 141 144 147 150 153 156 159 162 165 168 171 174 177 180 183 186 189 192 195 198 201 204 207 210 213 216 219 222 225 228 231 234 237 240 243 246 249 252 255 258 261 264 267 270 273 276 279 282 285 288 291 294 297 300 303 306 309 312 315 318 321 324 327 330 333 336 339 342 345 348 351 354 357 360 363 366 369 372 375 378 381 384 387 390 393 396 399 402 
				</DataArray>
			</Polys>
		</Piece>
	</PolyData>
</VTKFile>
