<?xml version="1.0"?>
<VTKFile type="PolyData" version="0.1" byte_order="LittleEndian" compressor="vtkZLibDataCompressor">
	<PolyData>
		<Piece NumberOfPoints="90" NumberOfVerts="0" NumberOfLines="0" NumberOfStrips="0" NumberOfPolys="176">
		<PointData Normals="Normals">
		<DataArray type="Float32" Name="Normals" NumberOfComponents="3" format="ascii">
			-0.490695 -0.330587  0.806183
			-0.299880 -0.733693  0.609727
			-0.712374 -0.090911  0.695887
			-0.203990 -0.704693  0.679555
			-0.521870 -0.397022  0.755000
			-0.722627  0.231571  0.651295
			-0.435242 -0.868393 -0.237608
			-0.833334 -0.477975  0.277658
			-0.092805 -0.912487  0.398441
			-0.035579 -0.948912 -0.313528
			-0.944149  0.329270 -0.012753
			-0.124308 -0.498020  0.858209
			-0.240308  0.211363  0.947406
			-0.617719  0.719876  0.316545
			-0.756912  0.645452  0.102346
			-0.825397 -0.376771 -0.420433
			-0.520940 -0.456611 -0.721199
			-0.094284 -0.574771 -0.812865
			 0.081907 -0.789031  0.608869
			 0.028135 -0.998673  0.043125
			-0.028098 -0.550512 -0.834354
			 0.173478 -0.117602 -0.977791
			-0.655394  0.258661 -0.709615
			-0.365689  0.760407 -0.536705
			 0.180320  0.021044  0.983383
			-0.140264  0.932221  0.333601
			-0.051833  0.626889 -0.777382
			-0.070752  0.258016 -0.963546
			 0.187177  0.209793 -0.959662
			 0.218086 -0.605245  0.765583
			-0.177442 -0.974015 -0.140746
			-0.029426 -0.784721  0.619150
			-0.301513 -0.318343 -0.898748
			 0.118543  0.449021 -0.885623
			-0.016492  0.586971 -0.809440
			 0.229906  0.794996  0.561360
			 0.257031  0.117622  0.959218
			 0.129015  0.831730 -0.539981
			 0.296628 -0.104080  0.949305
			-0.256983 -0.966399  0.005770
			 0.151877 -0.245889  0.957326
			-0.242070 -0.820453  0.517937
			-0.413730 -0.776480 -0.475296
			 0.144098  0.816713 -0.558762
			-0.215827  0.364269 -0.905940
			-0.320431  0.700127 -0.638079
			-0.518163 -0.492010 -0.699595
			-0.603846 -0.047383 -0.795692
			 0.373545  0.917435 -0.137029
			 0.412154  0.542582  0.731938
			 0.371943  0.674620  0.637610
			 0.152567  0.073260  0.985574
			 0.010324 -0.521147  0.853404
			-0.211654 -0.932524  0.292577
			-0.461442 -0.795439 -0.392873
			 0.319247  0.947581 -0.013109
			 0.125021  0.836301 -0.533826
			-0.318200  0.718606 -0.618348
			-0.679575  0.061926 -0.730988
			 0.224662  0.956773 -0.184697
			 0.094109  0.966417 -0.239127
			-0.362266 -0.481414 -0.798125
			-0.454185 -0.431336 -0.779529
			 0.354504  0.793547  0.494582
			 0.389825  0.035397  0.920208
			 0.271847 -0.290133  0.917563
			 0.062361 -0.852038  0.519752
			-0.146511 -0.985710  0.083127
			-0.395336 -0.781751 -0.482259
			-0.255627  0.183007 -0.949296
			 0.723787  0.668404  0.171372
			 0.095806  0.810392 -0.578001
			 0.373453  0.133776 -0.917953
			 0.390085 -0.405521 -0.826672
			-0.166690 -0.593208 -0.787603
			 0.514617  0.345840  0.784579
			 0.570102  0.095048  0.816057
			 0.371550 -0.257693  0.891933
			-0.293210 -0.900808  0.320269
			-0.036318 -0.935445  0.351601
			-0.387230 -0.889258  0.243461
			-0.105105 -0.944407 -0.311526
			 0.934538 -0.086414 -0.345214
			 0.871362  0.077153  0.484536
			 0.401879 -0.677573 -0.615945
			 0.826698 -0.539517 -0.159660
			 0.623666 -0.178419  0.761057
			 0.517662 -0.718967  0.463803
			 0.418192 -0.894416 -0.158540
			 0.854223 -0.376517  0.358523
		</DataArray>
	</PointData>
	<Points>
		<DataArray type="Float32" NumberOfComponents="3" format="ascii">
			 0.075870  0.012508 -0.030152
			 0.077371  0.009442 -0.031047
			 0.072996  0.012880 -0.031839
			 0.078913  0.011216 -0.029927
			 0.081532  0.012767 -0.024906
			 0.072765  0.014965 -0.032601
			 0.075317  0.009821 -0.033651
			 0.072128  0.011844 -0.033057
			 0.083675  0.008598 -0.032455
			 0.080944  0.008407 -0.033345
			 0.071819  0.014307 -0.034763
			 0.084220  0.012351 -0.024283
			 0.083168  0.014516 -0.024014
			 0.077884  0.020515 -0.031323
			 0.073493  0.016824 -0.032994
			 0.071933  0.012969 -0.035113
			 0.073342  0.013216 -0.037023
			 0.076760  0.011222 -0.037576
			 0.088684  0.010600 -0.024990
			 0.091106  0.009012 -0.032137
			 0.091900  0.010985 -0.035395
			 0.087721  0.011890 -0.035715
			 0.073329  0.014577 -0.037342
			 0.076514  0.018874 -0.033851
			 0.092819  0.012276 -0.025238
			 0.083596  0.023714 -0.029684
			 0.080211  0.018690 -0.035634
			 0.076295  0.014315 -0.038331
			 0.080550  0.014123 -0.037504
			 0.095262  0.011521 -0.026687
			 0.098795  0.008397 -0.032605
			 0.103980  0.008537 -0.031078
			 0.114149  0.006031 -0.036430
			 0.087490  0.020606 -0.033746
			 0.077796  0.015549 -0.036946
			 0.092406  0.022838 -0.029226
			 0.097794  0.015236 -0.026563
			 0.088895  0.023199 -0.031360
			 0.099383  0.013134 -0.026988
			 0.118256  0.003512 -0.035122
			 0.112854  0.008401 -0.031158
			 0.121524  0.002986 -0.034851
			 0.122751  0.002762 -0.038191
			 0.110849  0.015649 -0.034419
			 0.122594  0.009253 -0.039084
			 0.127603  0.008559 -0.040849
			 0.125691  0.003735 -0.040073
			 0.125455  0.005300 -0.040898
			 0.098012  0.020008 -0.030553
			 0.099532  0.018231 -0.028275
			 0.110741  0.015384 -0.032517
			 0.125016  0.007692 -0.033283
			 0.128364  0.000535 -0.034117
			 0.129593 -0.000564 -0.035699
			 0.128549 -0.000943 -0.039390
			 0.117462  0.013578 -0.034935
			 0.123101  0.011078 -0.037696
			 0.128532  0.008257 -0.043201
			 0.127212  0.005601 -0.043207
			 0.128555  0.009457 -0.038039
			 0.134111  0.008164 -0.042451
			 0.131539  0.001557 -0.043184
			 0.129267  0.003769 -0.044199
			 0.128566  0.009363 -0.035917
			 0.132793  0.004022 -0.034216
			 0.130868  0.002854 -0.034348
			 0.132334 -0.001175 -0.036684
			 0.132580 -0.001876 -0.040863
			 0.133493 -0.001774 -0.041947
			 0.134196  0.005492 -0.045842
			 0.140160  0.005525 -0.040859
			 0.135480  0.006994 -0.045383
			 0.137601  0.005182 -0.046287
			 0.138118  0.001212 -0.045227
			 0.135685 -0.000736 -0.043949
			 0.133043  0.005432 -0.034845
			 0.135142  0.003957 -0.036546
			 0.135060  0.000984 -0.035770
			 0.134356 -0.001564 -0.040240
			 0.135535 -0.002224 -0.039352
			 0.134256 -0.002169 -0.041038
			 0.134998 -0.002628 -0.041831
			 0.140245  0.002446 -0.042635
			 0.140581  0.003764 -0.039486
			 0.138129 -0.000435 -0.043811
			 0.139099 -0.000962 -0.041494
			 0.139081  0.000949 -0.037961
			 0.138612 -0.000820 -0.038539
			 0.137872 -0.001652 -0.042399
			 0.139599  0.000349 -0.038830
		</DataArray>
	</Points>
			<Polys>
				<DataArray type="Int32" Name="connectivity" format="ascii">
					2 1 0 
					0 1 3 
					4 0 3 
					5 0 4 
					2 0 5 
					1 7 6 
					3 1 8 
					9 1 6 
					9 8 1 
					7 1 2 
					5 10 2 
					10 7 2 
					4 3 8 
					4 8 11 
					4 11 12 
					13 5 4 
					13 4 12 
					10 5 14 
					13 14 5 
					6 7 15 
					6 15 16 
					6 16 17 
					17 9 6 
					10 15 7 
					8 18 11 
					19 18 8 
					8 9 19 
					20 19 9 
					21 20 9 
					21 9 17 
					10 23 22 
					10 22 15 
					14 23 10 
					18 24 11 
					24 12 11 
					13 12 25 
					25 12 24 
					26 13 25 
					13 23 14 
					23 13 26 
					16 15 22 
					22 27 16 
					27 17 16 
					17 28 21 
					17 27 28 
					18 29 24 
					19 29 18 
					19 20 30 
					31 29 19 
					30 31 19 
					32 30 20 
					33 32 20 
					21 33 20 
					21 26 33 
					21 28 26 
					22 23 27 
					34 23 26 
					23 34 27 
					24 36 35 
					29 36 24 
					35 25 24 
					37 25 35 
					37 26 25 
					28 34 26 
					33 26 37 
					34 28 27 
					31 38 29 
					29 38 36 
					39 31 30 
					30 32 39 
					38 31 40 
					39 41 31 
					31 41 40 
					39 32 42 
					44 32 43 
					43 32 33 
					44 45 32 
					42 32 46 
					47 32 45 
					47 46 32 
					48 33 37 
					33 48 43 
					48 37 35 
					49 48 35 
					49 35 36 
					49 36 38 
					50 38 40 
					49 38 50 
					39 42 41 
					40 51 50 
					41 51 40 
					41 53 52 
					53 41 54 
					51 41 52 
					41 42 54 
					46 54 42 
					55 43 50 
					50 43 48 
					56 44 43 
					56 43 55 
					56 45 44 
					58 45 57 
					60 45 59 
					45 60 57 
					47 45 58 
					59 45 56 
					46 47 58 
					61 54 46 
					46 62 61 
					62 46 58 
					49 50 48 
					63 55 50 
					63 50 51 
					64 63 51 
					65 51 52 
					64 51 65 
					52 66 65 
					53 66 52 
					66 53 67 
					54 67 53 
					67 54 68 
					54 61 68 
					56 55 59 
					59 55 63 
					69 57 60 
					58 57 69 
					62 58 69 
					63 60 59 
					60 63 70 
					60 71 69 
					70 71 60 
					69 72 61 
					74 61 73 
					73 61 72 
					68 61 74 
					62 69 61 
					70 63 75 
					63 64 75 
					64 65 76 
					76 75 64 
					66 77 65 
					76 65 77 
					79 66 78 
					66 67 78 
					79 77 66 
					80 78 67 
					80 67 68 
					81 80 68 
					74 81 68 
					71 72 69 
					76 70 75 
					70 83 82 
					83 70 76 
					82 72 70 
					70 72 71 
					82 73 72 
					85 84 73 
					82 85 73 
					74 73 84 
					81 74 84 
					76 77 83 
					83 77 86 
					87 77 79 
					77 87 86 
					79 78 80 
					81 79 80 
					88 87 79 
					81 88 79 
					88 81 84 
					83 85 82 
					89 85 83 
					86 89 83 
					85 88 84 
					87 85 89 
					88 85 87 
					86 87 89 
				</DataArray>
				<DataArray type="Int32" Name="offsets" format="ascii">
					3 6 9 12 15 18 21 24 27 30 33 36 39 42 45 48 51 54 57 60 63 66 69 72 75 78 81 84 87 90 93 96 99 102 105 108 111 114 117 120 123 126 129 132 135 138 141 144 147 150 153 156 159 162 165 168 171 174 177 180 183 186 189 192 195 198 201 204 207 210 213 216 219 222 225 228 231 234 237 240 243 246 249 252 255 258 261 264 267 270 273 276 279 282 285 288 291 294 297 300 303 306 309 312 315 318 321 324 327 330 333 336 339 342 345 348 351 354 357 360 363 366 369 372 375 378 381 384 387 390 393 396 399 402 405 408 411 414 417 420 423 426 429 432 435 438 441 444 447 450 453 456 459 462 465 468 471 474 477 480 483 486 489 492 495 498 501 504 507 510 513 516 519 522 525 528 
				</DataArray>
			</Polys>
		</Piece>
	</PolyData>
</VTKFile>
