<?xml version="1.0"?>
<VTKFile type="PolyData" version="0.1" byte_order="LittleEndian" compressor="vtkZLibDataCompressor">
	<PolyData>
		<Piece NumberOfPoints="382" NumberOfVerts="0" NumberOfLines="0" NumberOfStrips="0" NumberOfPolys="760">
		<PointData Normals="Normals">
		<DataArray type="Float32" Name="Normals" NumberOfComponents="3" format="ascii">
			-0.041918  0.383042  0.922779
			-0.216809 -0.017332  0.976060
			-0.023289  0.382857  0.923514
			 0.052773  0.714318  0.697829
			-0.065888  0.337091  0.939164
			-0.273297 -0.310409  0.910470
			-0.229951 -0.268807  0.935342
			-0.159635 -0.011720  0.987107
			-0.063186 -0.232508  0.970540
			-0.023054  0.115732  0.993013
			 0.202440  0.462826  0.863024
			 0.179583  0.863148  0.471938
			 0.102767  0.917792  0.383532
			 0.130886  0.949706  0.284477
			-0.062478  0.654300  0.753650
			 0.105601  0.802412  0.587352
			 0.131561  0.016462  0.991171
			 0.105169  0.584236  0.804741
			-0.489696 -0.674312  0.552722
			-0.161688 -0.399154  0.902515
			-0.365890 -0.500353  0.784711
			-0.244215 -0.460896  0.853191
			-0.112425 -0.410462  0.904921
			-0.163967 -0.397539  0.902817
			-0.010009 -0.323777  0.946081
			 0.030901 -0.318955  0.947266
			-0.140114 -0.246989  0.958835
			 0.003922  0.214299  0.976760
			-0.007947 -0.091390  0.995784
			 0.315552  0.265541  0.910997
			 0.289032  0.864264  0.411714
			 0.467734  0.787683  0.400975
			 0.426472  0.676187  0.600743
			 0.363728  0.473979  0.801902
			 0.303112  0.888854 -0.343602
			 0.206643  0.926362 -0.314885
			 0.308912  0.949445  0.055927
			 0.322338  0.879854  0.349220
			 0.021610  0.988603 -0.148984
			 0.017961  0.997453 -0.069031
			 0.097493  0.973309 -0.207760
			 0.144016  0.940482 -0.307820
			 0.528742  0.668981  0.522395
			 0.357434 -0.027515  0.933533
			 0.557571  0.254584  0.790127
			 0.121073 -0.249106  0.960879
			-0.742927 -0.622280  0.246632
			-0.652729 -0.747995  0.120201
			-0.328309 -0.798649  0.504354
			-0.520064 -0.668104  0.532137
			-0.597622 -0.654198  0.463544
			-0.461406 -0.881709  0.098459
			-0.348492 -0.833110  0.429513
			-0.200694 -0.654671  0.728786
			-0.368340 -0.714110  0.595292
			-0.048037 -0.250001  0.967053
			 0.275511 -0.492640  0.825469
			 0.266873 -0.212491  0.940014
			 0.208488 -0.270681  0.939822
			-0.318227 -0.793721  0.518400
			-0.290148 -0.769923  0.568360
			 0.166301 -0.254716  0.952609
			-0.133892 -0.713780  0.687452
			 0.300821  0.289753  0.908598
			 0.432421  0.885349 -0.170790
			 0.458140  0.886499  0.065015
			 0.559663  0.825915 -0.068129
			 0.137220  0.743260  0.654779
			 0.216291  0.886654  0.408733
			-0.000298  0.527685  0.849440
			 0.372943  0.730930 -0.571538
			 0.171024  0.399165 -0.900788
			 0.272783  0.428872 -0.861196
			 0.430977  0.468334 -0.771312
			 0.088215  0.582418 -0.808088
			 0.112387  0.244426 -0.963133
			 0.553326  0.806088  0.209886
			 0.129490  0.941034 -0.312551
			 0.319265  0.908609 -0.269259
			 0.598465  0.795343 -0.096274
			 0.068334  0.811995 -0.579650
			-0.068225  0.874309 -0.480550
			 0.859518  0.325698  0.393891
			 0.834470  0.535008  0.132011
			 0.547075  0.156293  0.822363
			 0.648512 -0.094146  0.755360
			 0.763799  0.170997  0.622391
			-0.712901 -0.700764 -0.026492
			-0.650849 -0.756950 -0.058497
			-0.583111 -0.789898  0.189850
			-0.326787 -0.912485  0.246131
			-0.409489 -0.893182 -0.185863
			-0.314746 -0.949044 -0.015853
			-0.101731 -0.908057  0.406304
			 0.303502 -0.714722  0.630126
			 0.450479 -0.314733  0.835471
			 0.682317 -0.674433  0.282105
			 0.590799 -0.386893  0.708005
			 0.685495 -0.566800  0.456984
			-0.222438 -0.968484  0.112070
			-0.154128 -0.903527  0.399855
			-0.007545 -0.307193  0.951617
			 0.048797 -0.695227  0.717132
			 0.102032 -0.870266  0.481900
			-0.174492  0.199793  0.964176
			 0.514974  0.743995 -0.425761
			 0.486026  0.713951 -0.504035
			 0.050831  0.983887  0.171416
			 0.282474  0.946654 -0.155096
			 0.441204  0.721532 -0.533602
			 0.546803  0.734777 -0.401384
			-0.230409  0.763628  0.603145
			-0.071801  0.902875  0.423864
			-0.429694  0.524073  0.735330
			 0.246440  0.111647 -0.962706
			 0.164030 -0.336436 -0.927311
			 0.068589 -0.269643 -0.960514
			 0.331157  0.098025 -0.938470
			 0.574115  0.556437 -0.600642
			 0.383790 -0.224590 -0.895692
			 0.519996  0.124693 -0.845019
			-0.154027  0.047781 -0.986911
			 0.034194  0.630721 -0.775256
			-0.048978 -0.178374 -0.982743
			-0.001189 -0.314003 -0.949421
			 0.040039  0.840133 -0.540901
			 0.283130  0.820057 -0.497338
			 0.578669  0.697443 -0.422747
			 0.305737  0.676194 -0.670288
			 0.842131  0.491326 -0.222294
			-0.007130  0.739210 -0.673437
			-0.103436  0.784811 -0.611042
			 0.975523  0.189687  0.111240
			 0.962551 -0.118408  0.243877
			 0.949744  0.311062 -0.035029
			 0.855461 -0.375192  0.356956
			-0.671159 -0.661901 -0.333817
			-0.635761 -0.534873 -0.556524
			-0.607781 -0.656701 -0.446481
			-0.545554 -0.782677 -0.299645
			-0.446821 -0.892657 -0.059278
			-0.126976 -0.991610 -0.024216
			-0.140747 -0.980074 -0.140162
			-0.261343 -0.870917 -0.416176
			-0.338083 -0.744623 -0.575532
			-0.468890 -0.665720 -0.580482
			-0.216591 -0.938962 -0.267282
			-0.002112 -0.994781  0.102015
			 0.351741 -0.901356  0.252655
			 0.532421 -0.835202 -0.137712
			 0.713561 -0.699572 -0.037827
			 0.845511 -0.518771  0.126446
			-0.044016 -0.994615 -0.093829
			-0.143959 -0.954592 -0.260825
			-0.065084 -0.971522  0.227838
			-0.163208 -0.050252  0.985311
			-0.180891 -0.414119  0.892067
			 0.050923 -0.664280  0.745748
			-0.234996 -0.592843  0.770269
			 0.239817 -0.751134  0.615049
			 0.290134 -0.928336  0.232411
			-0.387214  0.241558  0.889784
			 0.427152  0.711097 -0.558464
			 0.314630  0.833030 -0.455048
			 0.396913  0.693616 -0.601130
			-0.295796  0.925023  0.238407
			-0.405329  0.913684 -0.029817
			-0.357083  0.746548 -0.561389
			 0.014454  0.819570 -0.572797
			-0.420031  0.728796  0.540769
			-0.319704  0.853044  0.412439
			-0.674054  0.350280  0.650350
			-0.686166  0.543048  0.484019
			 0.290523 -0.369665 -0.882578
			 0.068170 -0.626909 -0.776104
			-0.007477 -0.703406 -0.710749
			 0.151222 -0.691006 -0.706853
			-0.105702 -0.700218 -0.706061
			 0.470002  0.450647 -0.758957
			 0.373480 -0.561842 -0.738137
			 0.229401 -0.736492 -0.636361
			 0.293549 -0.033596 -0.955354
			 0.299493 -0.284720 -0.910625
			 0.454907  0.262581 -0.850947
			-0.208251 -0.572507 -0.793012
			-0.348542 -0.467469 -0.812398
			-0.213415  0.345109 -0.913977
			-0.024891  0.676538 -0.735987
			 0.236187  0.690916 -0.683265
			 0.316697  0.586130 -0.745758
			 0.713814  0.545201 -0.439575
			 0.459903  0.557087 -0.691479
			 0.220170  0.519959 -0.825329
			 0.927269  0.327798 -0.180888
			 0.845712  0.329581 -0.419700
			 0.000918  0.675782 -0.737101
			 0.995247 -0.004725 -0.097263
			 0.978876 -0.201217 -0.036252
			 0.829304 -0.540148 -0.143161
			 0.945391 -0.017910 -0.325448
			-0.328910 -0.734874 -0.593109
			-0.456366 -0.732816 -0.504689
			-0.580523 -0.667833 -0.465824
			-0.054980 -0.915678 -0.398135
			 0.110016 -0.987819 -0.110041
			-0.565909 -0.546468 -0.617349
			-0.464570 -0.474540 -0.747654
			 0.237437 -0.778742 -0.580676
			 0.506458 -0.734988 -0.450881
			 0.300071 -0.950919 -0.075563
			-0.011807 -0.857816 -0.513821
			 0.121620 -0.904197 -0.409435
			-0.556516 -0.278608  0.782731
			-0.511416  0.171758  0.841993
			-0.312883 -0.652190  0.690472
			-0.218696 -0.539382  0.813166
			-0.560023 -0.641889  0.523787
			-0.622402 -0.398774  0.673495
			 0.205419 -0.875053  0.438275
			-0.240064 -0.682090  0.690741
			 0.404910 -0.783163  0.471914
			 0.400318 -0.898744  0.178899
			-0.114522  0.871653 -0.476557
			 0.149589  0.798212 -0.583508
			 0.075057  0.803289 -0.590841
			 0.191688  0.583119 -0.789448
			-0.689806  0.706620  0.157657
			-0.861289  0.507286 -0.029007
			-0.910666  0.356064 -0.209536
			-0.742923  0.363015 -0.562392
			-0.500429  0.651033 -0.570725
			-0.686562  0.724641 -0.059389
			-0.520875  0.740195  0.425207
			-0.904667  0.236720  0.354318
			-0.932849  0.236518  0.271758
			-0.807703  0.572244  0.141958
			-0.922618  0.385661  0.006376
			 0.227167  0.220763 -0.948503
			 0.307943 -0.880148 -0.361262
			 0.438612 -0.604556 -0.664929
			 0.451834 -0.814495 -0.363928
			 0.172616 -0.108028 -0.979047
			 0.376599 -0.267007 -0.887063
			-0.432933 -0.441858 -0.785703
			-0.350935 -0.385538 -0.853349
			-0.113186 -0.053763 -0.992118
			-0.023891  0.727175 -0.686036
			 0.218117  0.666379 -0.712997
			 0.566929  0.394555 -0.723131
			 0.227300  0.628032 -0.744251
			 0.028824  0.796307 -0.604206
			 0.896370 -0.283523 -0.340786
			 0.863222 -0.411336 -0.292661
			 0.538058 -0.729628 -0.422062
			 0.819313 -0.380287 -0.429079
			 0.772011 -0.032500 -0.634777
			-0.008232 -0.618971 -0.785371
			-0.056909 -0.685177 -0.726150
			-0.195126 -0.755166 -0.625819
			-0.150641 -0.945377 -0.289083
			-0.223735 -0.913408 -0.340043
			-0.512597 -0.673622 -0.532426
			-0.352847 -0.460779 -0.814360
			-0.362095 -0.463468 -0.808755
			 0.212440 -0.778409 -0.590719
			 0.388363 -0.916914 -0.091883
			-0.630415 -0.685038  0.365103
			-0.973796 -0.216227  0.070485
			-0.594818 -0.689374  0.413467
			-0.845941 -0.368981  0.385016
			-0.791836 -0.559680  0.244446
			-0.619263 -0.429401  0.657365
			-0.873099 -0.174141  0.455382
			-0.796108 -0.329361  0.507675
			-0.174868 -0.944883  0.276797
			 0.166442 -0.974652  0.149498
			-0.588354 -0.689091  0.423075
			-0.419250  0.740331 -0.525490
			-0.480239  0.801100 -0.357224
			-0.109230  0.760215 -0.640423
			-0.024624  0.667176 -0.744493
			 0.098730  0.407787 -0.907724
			-0.942445  0.331723 -0.041912
			-0.941487  0.291167 -0.169777
			-0.767726  0.555642 -0.319154
			-0.678301  0.680857 -0.276299
			-0.922186  0.341704  0.181138
			-0.908559  0.410571 -0.077155
			-0.965132  0.251334  0.073155
			-0.997784  0.022111 -0.062747
			-0.993803  0.089628 -0.065740
			-0.931921  0.311727 -0.185339
			 0.164128  0.146156 -0.975551
			 0.355880 -0.651795 -0.669711
			 0.395043 -0.848159 -0.352939
			 0.291576  0.051879 -0.955140
			 0.122924 -0.487422 -0.864471
			 0.350494 -0.241575 -0.904873
			-0.012359  0.057530 -0.998267
			-0.089803 -0.508028 -0.856647
			 0.142988 -0.654902 -0.742063
			 0.117260  0.193511 -0.974065
			 0.059046  0.765244 -0.641027
			 0.319195  0.642036 -0.697069
			 0.428788  0.530512 -0.731230
			 0.394022  0.525453 -0.754086
			 0.487422  0.444979 -0.751275
			 0.436457  0.387799 -0.811861
			 0.736803 -0.371610 -0.564825
			 0.803053 -0.300087 -0.514833
			 0.614212 -0.683287 -0.394794
			 0.338035 -0.874147 -0.348711
			 0.737463 -0.470354 -0.484681
			 0.683709 -0.252891 -0.684535
			-0.052523 -0.887007 -0.458758
			 0.028322 -0.964704 -0.261811
			-0.015183 -0.949907 -0.312165
			-0.124673 -0.762578 -0.634769
			-0.312819 -0.751344 -0.581056
			-0.068273 -0.399229 -0.914306
			 0.249294 -0.924295 -0.289017
			-0.171007 -0.975590  0.137771
			 0.105834 -0.993762 -0.035163
			-0.785525 -0.596021  0.166461
			-0.937166 -0.344666  0.054090
			-0.975275 -0.018738  0.220200
			-0.946633 -0.264419  0.184306
			-0.926762 -0.168558  0.335710
			-0.673163 -0.676358  0.298983
			-0.189966  0.591203 -0.783832
			-0.747974  0.610589 -0.260222
			-0.973366  0.218230 -0.070243
			-0.945932  0.065544  0.317675
			-0.986796  0.004290 -0.161912
			-0.955795  0.045810  0.290445
			-0.920402  0.326481 -0.215106
			-0.919270  0.372800 -0.126342
			-0.990495  0.128651  0.048666
			-0.999909 -0.009155  0.009864
			-0.288576  0.452846 -0.843596
			-0.180010 -0.877032 -0.445434
			-0.256776 -0.764353 -0.591465
			 0.142940 -0.951649 -0.271906
			-0.244228  0.291879 -0.924748
			-0.078360 -0.143250 -0.986580
			-0.603585 -0.380496 -0.700648
			-0.667060  0.328645 -0.668598
			-0.624934  0.131410 -0.769538
			 0.242779 -0.619346 -0.746638
			 0.175844 -0.463760 -0.868335
			 0.401268 -0.100070 -0.910478
			 0.600856 -0.135437 -0.787800
			 0.489228 -0.514243 -0.704422
			 0.311971  0.503155 -0.805921
			 0.528612  0.271908 -0.804137
			 0.586963  0.145769 -0.796383
			 0.419857 -0.429217 -0.799683
			 0.632329 -0.374844 -0.677976
			 0.689486 -0.297340 -0.660452
			 0.462363 -0.752550 -0.468923
			 0.498271 -0.083776 -0.862965
			 0.220773 -0.936624 -0.272022
			 0.196174 -0.657513 -0.727456
			-0.390382 -0.897258  0.206227
			-0.588511 -0.765610  0.259802
			-0.185240 -0.980416  0.066867
			-0.969935  0.126942  0.207635
			-0.871243 -0.395589  0.290596
			-0.787786 -0.529910  0.313990
			-0.839078  0.460425 -0.289753
			-0.921196 -0.362173 -0.142225
			-0.896717 -0.439895  0.048894
			-0.891286 -0.401528  0.210677
			-0.693400 -0.609983 -0.383558
			-0.655534  0.410577 -0.633799
			-0.323955 -0.943971 -0.063026
			-0.664847 -0.696603 -0.269671
			-0.647328 -0.760760 -0.047015
			 0.425280 -0.534561 -0.730329
			 0.745055  0.006402 -0.666973
			-0.512581 -0.822029  0.248049
			-0.682170 -0.703929  0.197810
		</DataArray>
	</PointData>
	<Points>
		<DataArray type="Float32" NumberOfComponents="3" format="ascii">
			 0.165800  0.007329  0.034820
			 0.165405  0.005885  0.034902
			 0.159097  0.009977  0.033203
			 0.169135  0.010520  0.031877
			 0.171463  0.005288  0.035749
			 0.162394  0.004573  0.033666
			 0.167457  0.003838  0.035171
			 0.160702  0.007313  0.033629
			 0.169424  0.004459  0.035562
			 0.156491  0.008889  0.033397
			 0.134801  0.018169  0.031096
			 0.156188  0.014303  0.029363
			 0.173436  0.012370  0.028771
			 0.158941  0.014024  0.029117
			 0.172769  0.008742  0.033522
			 0.175852  0.010067  0.032141
			 0.174347  0.005112  0.035848
			 0.175403  0.008091  0.034429
			 0.160776  0.000923  0.029794
			 0.158047  0.006308  0.033556
			 0.167323 -0.004079  0.030566
			 0.167225  0.002660  0.034545
			 0.168060  0.003342  0.035093
			 0.169488 -0.000369  0.033211
			 0.173911  0.003926  0.035463
			 0.174139  0.004500  0.035721
			 0.145864  0.010718  0.032751
			 0.141609  0.013693  0.032248
			 0.134119  0.014908  0.032125
			 0.130711  0.019053  0.031979
			 0.140772  0.018694  0.028680
			 0.135775  0.020679  0.028657
			 0.127933  0.025407  0.029726
			 0.127853  0.022251  0.031714
			 0.141542  0.019365  0.024687
			 0.154394  0.015669  0.024648
			 0.176095  0.013209  0.024720
			 0.178287  0.011631  0.028049
			 0.169931  0.013536  0.024171
			 0.173217  0.013818  0.023782
			 0.163912  0.014045  0.024557
			 0.159247  0.014640  0.024498
			 0.178666  0.009501  0.031918
			 0.176616  0.003737  0.035109
			 0.178071  0.007015  0.034068
			 0.175235  0.003928  0.035409
			 0.161858 -0.000935  0.028868
			 0.160495  0.000818  0.028758
			 0.157111  0.003052  0.030955
			 0.165658 -0.003728  0.029810
			 0.163654 -0.002677  0.029011
			 0.156910  0.002992  0.029934
			 0.152480  0.005185  0.031094
			 0.170570 -0.004292  0.031773
			 0.167111 -0.004606  0.030069
			 0.175196 -0.000540  0.034389
			 0.174909 -0.001489  0.034140
			 0.176024  0.003265  0.035194
			 0.176195  0.000623  0.034587
			 0.142916  0.008707  0.030897
			 0.138103  0.010799  0.031002
			 0.130654  0.015589  0.032496
			 0.133747  0.012102  0.030356
			 0.127451  0.019987  0.033415
			 0.136204  0.021242  0.025004
			 0.126156  0.027902  0.026499
			 0.132291  0.023584  0.026010
			 0.125666  0.026419  0.029904
			 0.125910  0.027282  0.028258
			 0.125094  0.023329  0.032413
			 0.136486  0.019095  0.021745
			 0.146464  0.014192  0.020336
			 0.140483  0.015375  0.019884
			 0.135157  0.016459  0.018248
			 0.156184  0.012565  0.021178
			 0.151209  0.012835  0.020505
			 0.179078  0.011275  0.027659
			 0.173445  0.013618  0.023139
			 0.176193  0.013057  0.023777
			 0.178956  0.011850  0.023681
			 0.163506  0.013075  0.022886
			 0.167939  0.012750  0.022746
			 0.180189  0.008401  0.030289
			 0.179711  0.010847  0.027209
			 0.178232  0.004599  0.034025
			 0.178861  0.003285  0.034108
			 0.179740  0.005386  0.032715
			 0.163173 -0.002727  0.028132
			 0.160412  0.000900  0.027811
			 0.165153 -0.004370  0.027970
			 0.167085 -0.005670  0.027868
			 0.152287  0.005149  0.027276
			 0.143340  0.008285  0.027908
			 0.170690 -0.006016  0.029734
			 0.175031 -0.003876  0.032050
			 0.176656  0.000748  0.034429
			 0.176452 -0.002883  0.030965
			 0.178062  0.001224  0.033703
			 0.177318 -0.001174  0.032683
			 0.138025  0.009634  0.027558
			 0.133883  0.011129  0.028578
			 0.127240  0.016856  0.033895
			 0.130007  0.011541  0.029260
			 0.129875  0.011039  0.028590
			 0.124370  0.020181  0.033432
			 0.132218  0.022945  0.023814
			 0.132008  0.021117  0.020720
			 0.125394  0.028027  0.026419
			 0.125328  0.027958  0.024391
			 0.126596  0.026463  0.022471
			 0.129160  0.025194  0.022950
			 0.124996  0.026536  0.029583
			 0.125186  0.027357  0.028150
			 0.123371  0.023638  0.031598
			 0.139727  0.013987  0.019367
			 0.138978  0.012609  0.019129
			 0.144923  0.012054  0.020126
			 0.137209  0.014209  0.018541
			 0.130756  0.018227  0.016392
			 0.133983  0.013154  0.017261
			 0.130061  0.017093  0.014993
			 0.157751  0.009774  0.020143
			 0.160940  0.012036  0.021299
			 0.153340  0.010436  0.020685
			 0.149354  0.010944  0.020687
			 0.173643  0.013327  0.022579
			 0.174931  0.013121  0.022892
			 0.178695  0.011741  0.022945
			 0.178361  0.011628  0.022437
			 0.179474  0.010897  0.023138
			 0.165957  0.011665  0.021332
			 0.170167  0.012590  0.022005
			 0.180939  0.007133  0.028855
			 0.180491  0.004712  0.031389
			 0.180475  0.009049  0.025894
			 0.179522  0.002656  0.032535
			 0.164942 -0.004198  0.027134
			 0.164679 -0.003309  0.026683
			 0.163056 -0.001458  0.026543
			 0.160290  0.001123  0.025938
			 0.166641 -0.005513  0.026977
			 0.169648 -0.005947  0.027793
			 0.167941 -0.005762  0.026878
			 0.148406  0.007451  0.024625
			 0.154706  0.005561  0.023867
			 0.161107  0.003066  0.022549
			 0.146160  0.008126  0.024395
			 0.170955 -0.006163  0.028879
			 0.173984 -0.005278  0.030641
			 0.174259 -0.005299  0.028522
			 0.177110 -0.002595  0.029268
			 0.178449 -0.000964  0.029491
			 0.133961  0.010389  0.023230
			 0.141028  0.009235  0.023958
			 0.133867  0.010416  0.026814
			 0.122405  0.018510  0.032903
			 0.122551  0.016677  0.032740
			 0.127265  0.011512  0.029945
			 0.124750  0.014227  0.031517
			 0.126353  0.009558  0.028060
			 0.129210  0.010099  0.026167
			 0.122351  0.020227  0.032882
			 0.128609  0.022944  0.020566
			 0.127254  0.022323  0.017383
			 0.126955  0.021082  0.015067
			 0.124746  0.027986  0.026468
			 0.124654  0.028007  0.024506
			 0.124516  0.027706  0.022458
			 0.124870  0.024589  0.020629
			 0.124376  0.026495  0.029309
			 0.124588  0.027336  0.027926
			 0.121608  0.020157  0.032243
			 0.122672  0.023812  0.030755
			 0.136377  0.012849  0.018250
			 0.138567  0.011456  0.019863
			 0.144234  0.009989  0.021193
			 0.136179  0.011854  0.019184
			 0.149081  0.008905  0.021836
			 0.127556  0.020068  0.014634
			 0.129172  0.012774  0.015347
			 0.133785  0.012089  0.018163
			 0.127165  0.016699  0.013337
			 0.127061  0.014103  0.014068
			 0.128133  0.017930  0.014077
			 0.153777  0.008291  0.021581
			 0.157916  0.007207  0.020926
			 0.161894  0.008825  0.018915
			 0.171824  0.011669  0.020633
			 0.174159  0.012276  0.021368
			 0.175733  0.011809  0.021853
			 0.179558  0.009914  0.021937
			 0.179498  0.009275  0.021138
			 0.177513  0.010869  0.021937
			 0.180203  0.009062  0.022569
			 0.179829  0.009204  0.021546
			 0.170053  0.010129  0.019630
			 0.180877  0.007179  0.025275
			 0.180976  0.006414  0.028293
			 0.178376 -0.000963  0.026796
			 0.180418  0.008292  0.022648
			 0.166568 -0.005343  0.026261
			 0.166364 -0.002135  0.024109
			 0.163761  0.000461  0.023327
			 0.168861 -0.005665  0.025978
			 0.171239 -0.006188  0.028125
			 0.164461  0.001212  0.021598
			 0.164625  0.003000  0.020305
			 0.171357 -0.005356  0.025965
			 0.174772 -0.003678  0.026079
			 0.129478  0.010049  0.022554
			 0.138233  0.010528  0.020732
			 0.133592  0.011128  0.019451
			 0.120781  0.016983  0.032645
			 0.121528  0.018601  0.032822
			 0.122146  0.015887  0.031998
			 0.124816  0.011909  0.030055
			 0.122569  0.014660  0.031185
			 0.122588  0.012820  0.028950
			 0.124297  0.007713  0.026772
			 0.123306  0.008035  0.027497
			 0.125832  0.008560  0.027058
			 0.125315  0.007696  0.025839
			 0.123908  0.023389  0.017074
			 0.125186  0.021605  0.015612
			 0.124971  0.020949  0.014448
			 0.125122  0.020540  0.014032
			 0.124202  0.027377  0.027336
			 0.124267  0.027532  0.024082
			 0.124162  0.027063  0.022491
			 0.124157  0.025862  0.021622
			 0.124304  0.024344  0.020701
			 0.122499  0.022817  0.017590
			 0.123994  0.026640  0.028712
			 0.120977  0.018499  0.032155
			 0.121022  0.019883  0.031762
			 0.123623  0.026580  0.028267
			 0.121926  0.023233  0.029577
			 0.126304  0.018408  0.013373
			 0.128911  0.010361  0.018744
			 0.125063  0.010551  0.015102
			 0.125409  0.009239  0.017738
			 0.124201  0.015542  0.013480
			 0.124734  0.012350  0.014003
			 0.164816  0.004947  0.018917
			 0.169260  0.005662  0.015504
			 0.170778  0.005757  0.015179
			 0.169911  0.007300  0.016571
			 0.174503  0.009405  0.019349
			 0.179230  0.008555  0.020461
			 0.177902  0.009787  0.021272
			 0.171379  0.008089  0.017982
			 0.179685  0.003828  0.024036
			 0.179240  0.001964  0.024433
			 0.177144 -0.001170  0.024569
			 0.179327  0.006587  0.021653
			 0.178929  0.007533  0.019895
			 0.169000 -0.005025  0.025344
			 0.169780 -0.002870  0.023848
			 0.168048 -0.002582  0.023991
			 0.168232 -0.002301  0.023376
			 0.168200 -0.001944  0.021098
			 0.166833 -0.001642  0.021503
			 0.168564 -0.001259  0.020029
			 0.167798  0.002039  0.019148
			 0.172955 -0.002671  0.024397
			 0.123852  0.007139  0.023466
			 0.121028  0.016212  0.031762
			 0.120531  0.017001  0.031857
			 0.121933  0.015193  0.031119
			 0.121822  0.013921  0.028539
			 0.121564  0.014893  0.029593
			 0.122652  0.008610  0.027375
			 0.121262  0.011508  0.026513
			 0.122194  0.009137  0.027191
			 0.123217  0.007392  0.025974
			 0.124046  0.007247  0.025190
			 0.122456  0.007770  0.026201
			 0.121703  0.020741  0.014844
			 0.123017  0.023007  0.017195
			 0.123045  0.020604  0.013958
			 0.123161  0.020167  0.013504
			 0.123466  0.019782  0.013220
			 0.124064  0.027098  0.025771
			 0.123627  0.025354  0.022644
			 0.123808  0.024024  0.020947
			 0.121111  0.020571  0.015290
			 0.120735  0.020002  0.015276
			 0.123301  0.023370  0.021070
			 0.121398  0.017292  0.022632
			 0.120981  0.017105  0.029661
			 0.120894  0.016088  0.025849
			 0.123450  0.026112  0.027985
			 0.123672  0.019044  0.013094
			 0.121864  0.008865  0.014256
			 0.121918  0.007350  0.016689
			 0.119806  0.015197  0.011609
			 0.117610  0.009985  0.011501
			 0.118580  0.010906  0.011531
			 0.118174  0.013091  0.011027
			 0.170354  0.001512  0.018696
			 0.172029  0.004263  0.016539
			 0.172186  0.005844  0.015028
			 0.172861  0.007485  0.016528
			 0.177705  0.008783  0.020222
			 0.177182  0.008077  0.019064
			 0.174745  0.007153  0.016809
			 0.176682  0.007777  0.018646
			 0.178361  0.007837  0.019672
			 0.177110  0.000870  0.021339
			 0.179320  0.005397  0.022388
			 0.176880 -0.000097  0.022076
			 0.174935 -0.001458  0.023314
			 0.178285  0.005884  0.020710
			 0.178181  0.006482  0.019215
			 0.169736 -0.002543  0.023357
			 0.169836 -0.002330  0.022804
			 0.169629 -0.002064  0.020663
			 0.169682 -0.001798  0.020172
			 0.168297 -0.001664  0.020581
			 0.170166 -0.000485  0.019181
			 0.172778 -0.002128  0.023241
			 0.122763  0.006870  0.022816
			 0.122432  0.006778  0.020863
			 0.121231  0.015672  0.030480
			 0.121224  0.015369  0.029082
			 0.120893  0.012850  0.025844
			 0.121472  0.014495  0.028243
			 0.120660  0.010242  0.024633
			 0.121655  0.007795  0.024843
			 0.121212  0.018856  0.012846
			 0.119560  0.017948  0.012874
			 0.123897  0.025842  0.025499
			 0.117312  0.009337  0.014037
			 0.116825  0.010914  0.011699
			 0.118471  0.008768  0.017288
			 0.117395  0.012713  0.011677
			 0.118038  0.014465  0.011819
			 0.121080  0.014530  0.023765
			 0.120991  0.014979  0.024657
			 0.119596  0.017078  0.011919
			 0.118042  0.008261  0.013550
			 0.117795  0.009069  0.012495
			 0.120632  0.007092  0.016646
			 0.118830  0.015114  0.011426
			 0.117680  0.011396  0.011151
			 0.117069  0.010353  0.011527
			 0.117990  0.013697  0.011362
			 0.117369  0.011919  0.011262
			 0.173910  0.003082  0.017793
			 0.173380  0.001760  0.018830
			 0.173402  0.005652  0.015543
			 0.174668  0.005515  0.016158
			 0.174904  0.004357  0.017273
			 0.173667  0.006798  0.016121
			 0.177875  0.007170  0.019022
			 0.176367  0.006945  0.018126
			 0.175347  0.001920  0.019152
			 0.176003  0.003927  0.018655
			 0.176557  0.005717  0.018401
			 0.174905 -0.000663  0.020526
			 0.177244  0.006436  0.018673
			 0.172671 -0.001819  0.020916
			 0.172748 -0.001203  0.019817
			 0.121486  0.007062  0.020953
			 0.120747  0.007526  0.021058
			 0.120786  0.006816  0.018680
			 0.120057  0.011076  0.022010
			 0.118402  0.007852  0.016615
			 0.120124  0.008355  0.021466
			 0.118683  0.016105  0.012179
			 0.116961  0.009845  0.012629
			 0.117225  0.008941  0.013665
			 0.117780  0.008329  0.015059
			 0.117305  0.009446  0.012563
			 0.118680  0.015660  0.011781
			 0.119277  0.007047  0.016444
			 0.117584  0.008546  0.013616
			 0.118126  0.007907  0.014988
			 0.175053  0.003224  0.018334
			 0.175589  0.005978  0.017111
			 0.119976  0.007220  0.018751
			 0.118746  0.007424  0.016539
		</DataArray>
	</Points>
			<Polys>
				<DataArray type="Int32" Name="connectivity" format="ascii">
					2 1 0 
					3 2 0 
					4 0 1 
					4 3 0 
					6 1 5 
					7 5 1 
					2 7 1 
					8 1 6 
					8 4 1 
					10 9 2 
					7 2 9 
					2 3 11 
					2 11 10 
					13 3 12 
					3 4 14 
					3 13 11 
					15 12 3 
					14 15 3 
					4 8 16 
					17 4 16 
					14 4 17 
					19 18 5 
					18 20 5 
					5 9 19 
					5 7 9 
					5 21 6 
					5 20 21 
					6 21 22 
					6 22 8 
					22 23 8 
					8 23 24 
					8 24 25 
					16 8 25 
					19 9 26 
					27 26 9 
					10 27 9 
					10 29 28 
					27 10 28 
					30 10 11 
					31 10 30 
					31 32 10 
					10 32 33 
					10 33 29 
					11 34 30 
					11 35 34 
					13 35 11 
					12 37 36 
					13 12 38 
					15 37 12 
					12 36 39 
					38 12 39 
					41 13 40 
					13 41 35 
					40 13 38 
					15 14 17 
					17 42 15 
					37 15 42 
					44 16 43 
					17 16 44 
					16 45 43 
					16 25 45 
					42 17 44 
					18 47 46 
					18 19 48 
					20 18 49 
					18 50 49 
					18 46 50 
					18 48 51 
					47 18 51 
					19 52 48 
					52 19 26 
					23 20 53 
					54 53 20 
					20 49 54 
					23 21 20 
					22 21 23 
					56 55 23 
					53 56 23 
					55 24 23 
					25 24 45 
					57 45 24 
					58 24 55 
					58 57 24 
					26 27 28 
					26 60 59 
					28 60 26 
					59 52 26 
					28 29 61 
					60 28 62 
					28 61 62 
					29 33 63 
					63 61 29 
					64 30 34 
					64 31 30 
					65 32 31 
					65 31 66 
					66 31 64 
					67 33 32 
					32 68 67 
					32 65 68 
					69 63 33 
					33 67 69 
					34 70 64 
					71 34 35 
					73 34 72 
					34 71 72 
					70 34 73 
					35 41 74 
					75 35 74 
					71 35 75 
					37 76 36 
					36 78 77 
					36 76 79 
					78 36 79 
					77 39 36 
					37 42 76 
					38 80 40 
					38 81 80 
					81 38 39 
					39 77 81 
					40 80 41 
					74 41 80 
					44 82 42 
					83 42 82 
					42 83 76 
					43 84 44 
					43 57 85 
					43 45 57 
					84 43 85 
					44 84 86 
					82 44 86 
					46 87 50 
					46 88 87 
					46 47 88 
					47 51 88 
					48 52 51 
					87 89 49 
					49 90 54 
					49 89 90 
					49 50 87 
					88 51 91 
					51 52 91 
					91 52 92 
					92 52 59 
					53 90 93 
					90 53 54 
					94 56 53 
					93 94 53 
					58 55 56 
					95 58 56 
					96 56 94 
					97 95 56 
					98 97 56 
					98 56 96 
					95 57 58 
					97 57 95 
					57 97 85 
					60 92 59 
					92 60 99 
					60 62 100 
					99 60 100 
					63 101 61 
					102 62 61 
					61 101 102 
					103 100 62 
					102 103 62 
					104 101 63 
					63 69 104 
					64 105 66 
					64 106 105 
					106 64 70 
					65 108 107 
					107 68 65 
					65 109 108 
					109 65 110 
					66 110 65 
					110 66 105 
					67 112 111 
					112 67 68 
					111 69 67 
					107 112 68 
					69 113 104 
					111 113 69 
					73 106 70 
					115 114 71 
					75 116 71 
					71 116 115 
					71 114 72 
					72 114 117 
					117 73 72 
					118 106 73 
					117 119 73 
					73 119 120 
					73 120 118 
					74 122 121 
					74 121 123 
					122 74 80 
					74 123 75 
					75 123 124 
					75 124 116 
					79 76 83 
					77 126 125 
					77 78 126 
					81 77 125 
					79 127 78 
					78 128 126 
					78 127 128 
					129 79 83 
					127 79 129 
					122 80 130 
					81 130 80 
					81 125 131 
					81 131 130 
					82 132 83 