<?xml version="1.0"?>
<VTKFile type="PolyData" version="0.1" byte_order="LittleEndian" compressor="vtkZLibDataCompressor">
	<PolyData>
		<Piece NumberOfPoints="90" NumberOfVerts="0" NumberOfLines="0" NumberOfStrips="0" NumberOfPolys="176">
		<PointData Normals="Normals">
		<DataArray type="Float32" Name="Normals" NumberOfComponents="3" format="ascii">
			-0.490702 -0.330593 -0.806176
			-0.299885 -0.733697 -0.609720
			-0.712375 -0.090926 -0.695884
			-0.203996 -0.704696 -0.679550
			-0.521877 -0.397019 -0.754997
			-0.722628  0.231557 -0.651299
			-0.435241 -0.868395  0.237604
			-0.833330 -0.477970 -0.277679
			-0.092809 -0.912486 -0.398441
			-0.035578 -0.948912  0.313529
			-0.944148  0.329276  0.012737
			-0.124313 -0.498018 -0.858210
			-0.240311  0.211367 -0.947404
			-0.617721  0.719874 -0.316547
			-0.756914  0.645449 -0.102357
			-0.825401 -0.376769  0.420426
			-0.520924 -0.456616  0.721208
			-0.094285 -0.574772  0.812864
			 0.081914 -0.789034 -0.608863
			 0.028135 -0.998673 -0.043135
			-0.028098 -0.550505  0.834359
			 0.173480 -0.117602  0.977791
			-0.655386  0.258665  0.709621
			-0.365687  0.760408  0.536706
			 0.180325  0.021041 -0.983382
			-0.140263  0.932220 -0.333604
			-0.051834  0.626891  0.777381
			-0.070753  0.258016  0.963546
			 0.187173  0.209796  0.959663
			 0.218086 -0.605253 -0.765577
			-0.177443 -0.974016  0.140739
			-0.029427 -0.784714 -0.619159
			-0.301513 -0.318344  0.898748
			 0.118541  0.449019  0.885624
			-0.016495  0.586976  0.809436
			 0.229906  0.794993 -0.561364
			 0.257036  0.117620 -0.959217
			 0.129014  0.831732  0.539979
			 0.296629 -0.104081 -0.949304
			-0.256978 -0.966400 -0.005783
			 0.151880 -0.245885 -0.957326
			-0.242066 -0.820450 -0.517945
			-0.413730 -0.776487  0.475284
			 0.144100  0.816713  0.558762
			-0.215815  0.364280  0.905938
			-0.320433  0.700128  0.638078
			-0.518167 -0.491998  0.699600
			-0.603846 -0.047357  0.795693
			 0.373546  0.917435  0.137023
			 0.412157  0.542582 -0.731937
			 0.371944  0.674623 -0.637606
			 0.152566  0.073265 -0.985574
			 0.010327 -0.521139 -0.853410
			-0.211646 -0.932523 -0.292587
			-0.461439 -0.795443  0.392867
			 0.319244  0.947582  0.013119
			 0.125027  0.836304  0.533820
			-0.318210  0.718602  0.618348
			-0.679578  0.061944  0.730983
			 0.224652  0.956773  0.184709
			 0.094105  0.966417  0.239128
			-0.362261 -0.481416  0.798126
			-0.454185 -0.431326  0.779535
			 0.354507  0.793547 -0.494578
			 0.389838  0.035419 -0.920202
			 0.271850 -0.290136 -0.917561
			 0.062366 -0.852035 -0.519756
			-0.146524 -0.985708 -0.083132
			-0.395343 -0.781751  0.482254
			-0.255627  0.183005  0.949296
			 0.723787  0.668404 -0.171374
			 0.095811  0.810392  0.578002
			 0.373456  0.133773  0.917952
			 0.390080 -0.405519  0.826676
			-0.166692 -0.593199  0.787610
			 0.514624  0.345858 -0.784566
			 0.570108  0.095059 -0.816052
			 0.371548 -0.257695 -0.891934
			-0.293218 -0.900806 -0.320270
			-0.036313 -0.935442 -0.351611
			-0.387242 -0.889251 -0.243468
			-0.105109 -0.944406  0.311527
			 0.934539 -0.086406  0.345212
			 0.871367  0.077161 -0.484526
			 0.401867 -0.677565  0.615961
			 0.826698 -0.539516  0.159663
			 0.623689 -0.178431 -0.761035
			 0.517664 -0.718971 -0.463794
			 0.418188 -0.894418  0.158544
			 0.854239 -0.376516 -0.358486
		</DataArray>
	</PointData>
	<Points>
		<DataArray type="Float32" NumberOfComponents="3" format="ascii">
			 0.075870  0.012508  0.030152
			 0.077371  0.009442  0.031047
			 0.072996  0.012880  0.031839
			 0.078913  0.011216  0.029927
			 0.081532  0.012767  0.024906
			 0.072765  0.014965  0.032601
			 0.075317  0.009821  0.033651
			 0.072128  0.011844  0.033057
			 0.083675  0.008598  0.032455
			 0.080944  0.008407  0.033345
			 0.071819  0.014307  0.034763
			 0.084220  0.012351  0.024283
			 0.083168  0.014516  0.024014
			 0.077884  0.020515  0.031323
			 0.073493  0.016824  0.032994
			 0.071933  0.012969  0.035113
			 0.073342  0.013216  0.037023
			 0.076760  0.011222  0.037576
			 0.088684  0.010600  0.024990
			 0.091106  0.009012  0.032137
			 0.091900  0.010985  0.035395
			 0.087721  0.011890  0.035715
			 0.073329  0.014577  0.037342
			 0.076514  0.018874  0.033851
			 0.092819  0.012276  0.025238
			 0.083596  0.023714  0.029684
			 0.080211  0.018690  0.035634
			 0.076295  0.014315  0.038331
			 0.080550  0.014123  0.037504
			 0.095262  0.011521  0.026687
			 0.098795  0.008397  0.032605
			 0.103980  0.008537  0.031078
			 0.114149  0.006031  0.036430
			 0.087490  0.020606  0.033746
			 0.077796  0.015549  0.036946
			 0.092406  0.022838  0.029226
			 0.097794  0.015236  0.026563
			 0.088895  0.023199  0.031360
			 0.099383  0.013134  0.026988
			 0.118256  0.003512  0.035122
			 0.112854  0.008401  0.031158
			 0.121524  0.002986  0.034851
			 0.122751  0.002762  0.038191
			 0.110849  0.015649  0.034419
			 0.122594  0.009253  0.039084
			 0.127603  0.008559  0.040849
			 0.125691  0.003735  0.040073
			 0.125455  0.005300  0.040898
			 0.098012  0.020008  0.030553
			 0.099532  0.018231  0.028275
			 0.110741  0.015384  0.032517
			 0.125016  0.007692  0.033283
			 0.128364  0.000535  0.034117
			 0.129593 -0.000564  0.035699
			 0.128549 -0.000943  0.039390
			 0.117462  0.013578  0.034935
			 0.123101  0.011078  0.037696
			 0.128532  0.008257  0.043201
			 0.127212  0.005601  0.043207
			 0.128555  0.009457  0.038039
			 0.134111  0.008164  0.042451
			 0.131539  0.001557  0.043184
			 0.129267  0.003769  0.044199
			 0.128566  0.009363  0.035917
			 0.132793  0.004022  0.034216
			 0.130868  0.002854  0.034348
			 0.132334 -0.001175  0.036684
			 0.132580 -0.001876  0.040863
			 0.133493 -0.001774  0.041947
			 0.134196  0.005492  0.045842
			 0.140160  0.005525  0.040859
			 0.135480  0.006994  0.045383
			 0.137601  0.005182  0.046287
			 0.138118  0.001212  0.045227
			 0.135685 -0.000736  0.043949
			 0.133043  0.005432  0.034845
			 0.135142  0.003957  0.036546
			 0.135060  0.000984  0.035770
			 0.134356 -0.001564  0.040240
			 0.135535 -0.002224  0.039352
			 0.134256 -0.002169  0.041038
			 0.134998 -0.002628  0.041831
			 0.140245  0.002446  0.042635
			 0.140581  0.003764  0.039486
			 0.138129 -0.000435  0.043811
			 0.139099 -0.000962  0.041494
			 0.139081  0.000949  0.037961
			 0.138612 -0.000820  0.038539
			 0.137872 -0.001652  0.042399
			 0.139599  0.000349  0.038830
		</DataArray>
	</Points>
			<Polys>
				<DataArray type="Int32" Name="connectivity" format="ascii">
					0 1 2 
					3 1 0 
					3 0 4 
					4 0 5 
					5 0 2 
					6 7 1 
					8 1 3 
					6 1 9 
					1 8 9 
					2 1 7 
					2 10 5 
					2 7 10 
					8 3 4 
					11 8 4 
					12 11 4 
					4 5 13 
					12 4 13 
					14 5 10 
					5 14 13 
					15 7 6 
					16 15 6 
					17 16 6 
					6 9 17 
					7 15 10 
					11 18 8 
					8 18 19 
					19 9 8 
					9 19 20 
					9 20 21 
					17 9 21 
					22 23 10 
					15 22 10 
					10 23 14 
					11 24 18 
					11 12 24 
					25 12 13 
					24 12 25 
					25 13 26 
					14 23 13 
					26 13 23 
					22 15 16 
					16 27 22 
					16 17 27 
					21 28 17 
					28 27 17 
					24 29 18 
					18 29 19 
					30 20 19 
					19 29 31 
					19 31 30 
					20 30 32 
					20 32 33 
					20 33 21 
					33 26 21 
					26 28 21 
					27 23 22 
					26 23 34 
					27 34 23 
					35 36 24 
					24 36 29 
					24 25 35 
					35 25 37 
					25 26 37 
					26 34 28 
					37 26 33 
					27 28 34 
					29 38 31 
					36 38 29 
					30 31 39 
					39 32 30 
					40 31 38 
					31 41 39 
					40 41 31 
					42 32 39 
					43 32 44 
					33 32 43 
					32 45 44 
					46 32 42 
					45 32 47 
					32 46 47 
					37 33 48 
					43 48 33 
					35 37 48 
					35 48 49 
					36 35 49 
					38 36 49 
					40 38 50 
					50 38 49 
					41 42 39 
					50 51 40 
					40 51 41 
					52 53 41 
					54 41 53 
					52 41 51 
					54 42 41 
					42 54 46 
					50 43 55 
					48 43 50 
					43 44 56 
					55 43 56 
					44 45 56 
					57 45 58 
					59 45 60 
					57 60 45 
					58 45 47 
					56 45 59 
					58 47 46 
					46 54 61 
					61 62 46 
					58 46 62 
					48 50 49 
					50 55 63 
					51 50 63 
					51 63 64 
					52 51 65 
					65 51 64 
					65 66 52 
					52 66 53 
					67 53 66 
					53 67 54 
					68 54 67 
					68 61 54 
					59 55 56 
					63 55 59 
					60 57 69 
					69 57 58 
					69 58 62 
					59 60 63 
					70 63 60 
					69 71 60 
					60 71 70 
					61 72 69 
					73 61 74 
					72 61 73 
					74 61 68 
					61 69 62 
					75 63 70 
					75 64 63 
					76 65 64 
					64 75 76 
					65 77 66 
					77 65 76 
					78 66 79 
					78 67 66 
					66 77 79 
					67 78 80 
					68 67 80 
					68 80 81 
					68 81 74 
					69 72 71 
					75 70 76 
					82 83 70 
					76 70 83 
					70 72 82 
					71 72 70 
					72 73 82 
					73 84 85 
					73 85 82 
					84 73 74 
					84 74 81 
					83 77 76 
					86 77 83 
					79 77 87 
					86 87 77 
					80 78 79 
					80 79 81 
					79 87 88 
					79 88 81 
					84 81 88 
					82 85 83 
					83 85 89 
					83 89 86 
					84 88 85 
					89 85 87 
					87 85 88 
					89 87 86 
				</DataArray>
				<DataArray type="Int32" Name="offsets" format="ascii">
					3 6 9 12 15 18 21 24 27 30 33 36 39 42 45 48 51 54 57 60 63 66 69 72 75 78 81 84 87 90 93 96 99 102 105 108 111 114 117 120 123 126 129 132 135 138 141 144 147 150 153 156 159 162 165 168 171 174 177 180 183 186 189 192 195 198 201 204 207 210 213 216 219 222 225 228 231 234 237 240 243 246 249 252 255 258 261 264 267 270 273 276 279 282 285 288 291 294 297 300 303 306 309 312 315 318 321 324 327 330 333 336 339 342 345 348 351 354 357 360 363 366 369 372 375 378 381 384 387 390 393 396 399 402 405 408 411 414 417 420 423 426 429 432 435 438 441 444 447 450 453 456 459 462 465 468 471 474 477 480 483 486 489 492 495 498 501 504 507 510 513 516 519 522 525 528 
				</DataArray>
			</Polys>
		</Piece>
	</PolyData>
</VTKFile>
