<?xml version="1.0"?>
<VTKFile type="PolyData" version="0.1" byte_order="LittleEndian" compressor="vtkZLibDataCompressor">
	<PolyData>
		<Piece NumberOfPoints="57" NumberOfVerts="0" NumberOfLines="0" NumberOfStrips="0" NumberOfPolys="110">
		<PointData Normals="Normals">
		<DataArray type="Float32" Name="Normals" NumberOfComponents="3" format="ascii">
			 0.271465  0.895932 -0.351585
			 0.108695  0.498457 -0.860073
			 0.358514  0.369331 -0.857358
			 0.206510  0.572253 -0.793650
			 0.208670  0.975112  0.074923
			 0.059029  0.890813  0.450519
			 0.207663  0.910322 -0.358036
			 0.161441 -0.332905 -0.929038
			 0.283453  0.256661 -0.924002
			 0.445699  0.054634 -0.893514
			 0.496864 -0.672421 -0.548613
			 0.401570 -0.399411 -0.824144
			-0.077410  0.843827 -0.531003
			-0.423527  0.225766 -0.877300
			-0.800657  0.416591 -0.430581
			 0.104911  0.719424  0.686602
			-0.083153  0.981797  0.170762
			 0.570561  0.653912  0.496849
			-0.147119  0.243334  0.958720
			-0.245029  0.492447  0.835139
			 0.662826  0.564291 -0.492176
			 0.054085 -0.585332 -0.808988
			 0.211555 -0.806323  0.552348
			 0.025993 -0.946676  0.321138
			 0.477618 -0.279265 -0.833002
			-0.151049 -0.273246 -0.950011
			 0.340755 -0.939730 -0.028174
			-0.410766 -0.910594 -0.045719
			-0.424721 -0.647492 -0.632745
			-0.902433  0.018825 -0.430419
			-0.593389  0.803458 -0.048430
			-0.876763  0.464320 -0.125272
			-0.903477  0.337576 -0.264142
			-0.970503 -0.000431 -0.241090
			-0.977472  0.077586 -0.196287
			-0.156371  0.341031  0.926955
			-0.101986 -0.013524  0.994694
			-0.513076  0.771592  0.376031
			-0.730943  0.682339  0.011662
			 0.984327  0.171170 -0.042448
			 0.605336  0.003460  0.795962
			 0.917495 -0.355969 -0.177453
			 0.218617 -0.450773  0.865454
			-0.898292 -0.143074  0.415453
			-0.472219 -0.105429  0.875154
			-0.622686 -0.534481  0.571483
			-0.941964 -0.098853 -0.320829
			-0.997829  0.031083 -0.058059
			-0.972091  0.225931 -0.063203
			-0.804923  0.578416 -0.132415
			-0.765591  0.643249  0.010070
			-0.985828  0.166649  0.019286
			-0.979142 -0.152813  0.133902
			-0.973809  0.136637 -0.181733
			-0.816096  0.563852  0.126717
			-0.632775  0.212685  0.744554
			-0.914079  0.240305  0.326671
		</DataArray>
	</PointData>
	<Points>
		<DataArray type="Float32" NumberOfComponents="3" format="ascii">
			 0.018136 -0.000044  0.036154
			 0.020310 -0.001516  0.034678
			 0.017654 -0.001382  0.034474
			 0.015882  0.000403  0.034181
			 0.016627  0.000691  0.036983
			 0.020003 -0.001314  0.039329
			 0.021252  0.000056  0.035560
			 0.020138 -0.002954  0.034061
			 0.020991 -0.003198  0.034216
			 0.016085 -0.003759  0.032837
			 0.016029 -0.004808  0.033210
			 0.017390 -0.003709  0.033745
			 0.015373  0.000709  0.034369
			 0.014498 -0.002135  0.033079
			 0.014026  0.000559  0.035307
			 0.015499 -0.000476  0.040085
			 0.014508  0.000585  0.037373
			 0.022751 -0.001986  0.041295
			 0.018465 -0.003086  0.040959
			 0.019902 -0.002554  0.041406
			 0.023658 -0.001010  0.036712
			 0.021478 -0.003543  0.034311
			 0.015494 -0.005981  0.039338
			 0.018303 -0.005564  0.040834
			 0.022132 -0.003472  0.034417
			 0.015523 -0.004420  0.032711
			 0.014945 -0.006384  0.038408
			 0.013650 -0.006573  0.038759
			 0.014931 -0.005056  0.033284
			 0.014020 -0.003583  0.033874
			 0.013752  0.000577  0.036109
			 0.013962 -0.004156  0.035351
			 0.013347  0.000151  0.036475
			 0.012887 -0.000603  0.037722
			 0.013773 -0.003660  0.036253
			 0.013334 -0.000536  0.040351
			 0.015229 -0.001806  0.040438
			 0.013246 -0.000215  0.039880
			 0.013081  0.000113  0.037704
			 0.023854 -0.001592  0.036627
			 0.022460 -0.002392  0.041712
			 0.023833 -0.002511  0.036059
			 0.021953 -0.004667  0.041428
			 0.012867 -0.004565  0.039814
			 0.012992 -0.002543  0.040271
			 0.013005 -0.005595  0.039304
			 0.013660 -0.004504  0.034679
			 0.012984 -0.005642  0.038511
			 0.013152 -0.004907  0.036915
			 0.013491 -0.004480  0.035226
			 0.013530 -0.004450  0.036005
			 0.012669 -0.000796  0.039215
			 0.012919 -0.001692  0.040261
			 0.013363 -0.004808  0.037980
			 0.013586 -0.004597  0.036573
			 0.013009 -0.001038  0.040329
			 0.012719 -0.000922  0.039789
		</DataArray>
	</Points>
			<Polys>
				<DataArray type="Int32" Name="connectivity" format="ascii">
					0 1 2 
					3 0 2 
					4 5 0 
					0 6 1 
					6 0 5 
					0 3 4 
					7 1 8 
					1 6 8 
					2 1 7 
					2 9 3 
					10 9 2 
					11 10 2 
					11 2 7 
					3 12 4 
					9 13 3 
					12 3 14 
					13 14 3 
					15 5 4 
					15 4 16 
					12 14 4 
					14 16 4 
					17 6 5 
					15 18 5 
					5 18 19 
					19 17 5 
					8 6 20 
					20 6 17 
					21 7 8 
					7 22 11 
					7 21 23 
					7 23 22 
					8 20 24 
					24 21 8 
					25 13 9 
					9 10 25 
					22 10 11 
					26 27 10 
					22 26 10 
					28 10 27 
					25 10 28 
					29 14 13 
					13 25 29 
					30 16 14 
					14 29 31 
					14 32 30 
					14 33 32 
					33 14 34 
					34 14 31 
					15 35 36 
					18 15 36 
					16 37 15 
					35 15 37 
					37 16 38 
					38 16 30 
					39 20 17 
					19 40 17 
					17 40 41 
					17 41 39 
					23 42 18 
					18 36 23 
					42 19 18 
					42 40 19 
					20 41 24 
					41 20 39 
					21 24 23 
					43 22 44 
					36 44 22 
					36 22 23 
					45 27 22 
					26 22 27 
					43 45 22 
					23 24 41 
					42 23 41 
					29 25 28 
					27 46 28 
					27 45 47 
					48 27 47 
					46 27 48 
					46 29 28 
					29 46 31 
					33 38 30 
					30 32 33 
					49 31 46 
					50 31 49 
					31 50 34 
					38 33 51 
					33 52 51 
					52 33 34 
					53 52 34 
					54 34 50 
					54 53 34 
					35 44 36 
					35 55 44 
					35 37 55 
					37 38 51 
					55 37 56 
					56 37 51 
					42 41 40 
					53 43 44 
					47 45 43 
					47 43 53 
					44 55 52 
					44 52 53 
					46 48 49 
					47 54 48 
					53 54 47 
					48 54 50 
					48 50 49 
					52 56 51 
					56 52 55 
				</DataArray>
				<DataArray type="Int32" Name="offsets" format="ascii">
					3 6 9 12 15 18 21 24 27 30 33 36 39 42 45 48 51 54 57 60 63 66 69 72 75 78 81 84 87 90 93 96 99 102 105 108 111 114 117 120 123 126 129 132 135 138 141 144 147 150 153 156 159 162 165 168 171 174 177 180 183 186 189 192 195 198 201 204 207 210 213 216 219 222 225 228 231 234 237 240 243 246 249 252 255 258 261 264 267 270 273 276 279 282 285 288 291 294 297 300 303 306 309 312 315 318 321 324 327 330 
				</DataArray>
			</Polys>
		</Piece>
	</PolyData>
</VTKFile>
