<?xml version="1.0"?>
<VTKFile type="PolyData" version="0.1" byte_order="LittleEndian" compressor="vtkZLibDataCompressor">
	<PolyData>
		<Piece NumberOfPoints="87" NumberOfVerts="0" NumberOfLines="0" NumberOfStrips="0" NumberOfPolys="170">
		<PointData Normals="Normals">
		<DataArray type="Float32" Name="Normals" NumberOfComponents="3" format="ascii">
			 0.402940  0.185098  0.896314
			-0.180126  0.266306  0.946908
			-0.021757 -0.682793  0.730288
			 0.789507 -0.445377  0.422277
			 0.027811  0.908230  0.417547
			 0.636946  0.612441  0.468204
			-0.211068 -0.379996  0.900585
			-0.120143  0.923580  0.364097
			-0.221040 -0.650403  0.726716
			-0.375017 -0.567837  0.732751
			-0.052363  0.302585  0.951683
			-0.235458 -0.915945  0.324967
			-0.318410 -0.932225 -0.171965
			 0.108180 -0.982371  0.152458
			 0.930179 -0.364736  0.041662
			 0.988762  0.145093  0.036035
			-0.165200  0.856796 -0.488476
			 0.587967  0.797129 -0.137405
			 0.061217  0.977993 -0.199454
			 0.235242  0.900683  0.365281
			 0.215691 -0.970708  0.105846
			 0.146531 -0.659114  0.737630
			 0.525860  0.403921  0.748545
			 0.209522 -0.224920  0.951584
			-0.269419 -0.431659 -0.860862
			 0.085621 -0.553074 -0.828721
			-0.227392  0.046677 -0.972684
			-0.215156 -0.205537 -0.954705
			 0.270285 -0.887257 -0.373793
			 0.729635 -0.682883  0.036103
			 0.998370 -0.012539 -0.055683
			 0.024968  0.713230 -0.700485
			-0.253445  0.158137 -0.954337
			 0.029109  0.832676 -0.552994
			-0.293620  0.429759 -0.853870
			 0.609437  0.531505 -0.588294
			 0.140687  0.953436 -0.266773
			-0.151827  0.969998  0.189875
			 0.197424  0.653584  0.730652
			 0.305112 -0.824162  0.477142
			 0.457283 -0.690310  0.560682
			 0.391491 -0.812524 -0.431903
			 0.500335 -0.046140  0.864602
			 0.678405  0.017095  0.734489
			 0.755419 -0.047652  0.653507
			 0.292994 -0.048145 -0.954901
			 0.050220  0.162486 -0.985432
			 0.084512  0.029692 -0.995980
			 0.095428  0.240819 -0.965867
			 0.063058  0.087992 -0.994123
			 0.730622 -0.532623 -0.427205
			 0.797672 -0.122550 -0.590509
			-0.092644  0.715405 -0.692541
			 0.131644  0.208830 -0.969051
			-0.284899  0.911958 -0.295237
			-0.938243  0.100402  0.331088
			-0.720667  0.687353  0.090469
			-0.836396  0.254381  0.485523
			-0.500799  0.170110  0.848683
			 0.146161 -0.025368  0.988935
			 0.586292 -0.723596  0.364240
			 0.160036 -0.933657 -0.320427
			 0.150206 -0.366507 -0.918210
			 0.125499 -0.967713  0.218592
			 0.155320 -0.676763  0.719630
			-0.824548 -0.285167 -0.488672
			-0.261377  0.526424 -0.809048
			-0.254176  0.330601 -0.908899
			-0.468307  0.047358 -0.882296
			-0.615385  0.604534 -0.505806
			-0.964827  0.201160 -0.169245
			-0.930015 -0.303648  0.207048
			-0.894558 -0.385934  0.225434
			-0.991258 -0.071598  0.110818
			-0.819717 -0.363660  0.442510
			-0.463320 -0.345412  0.816103
			-0.276759 -0.758363 -0.590162
			-0.714493 -0.698012 -0.047741
			-0.446238 -0.893730  0.046033
			-0.984461 -0.032600  0.172552
			-0.849750 -0.511837  0.126283
			-0.987625  0.082328  0.133491
			-0.773239 -0.632829 -0.040365
			-0.892997  0.132379 -0.430154
			-0.693694  0.132981 -0.707888
			-0.929753 -0.273435  0.246563
			-0.953510  0.293697 -0.067542
		</DataArray>
	</PointData>
	<Points>
		<DataArray type="Float32" NumberOfComponents="3" format="ascii">
			 0.039320 -0.003489 -0.020646
			 0.036482 -0.001774 -0.020738
			 0.038869 -0.003788 -0.020512
			 0.039977 -0.003524 -0.021245
			 0.036766 -0.000581 -0.021304
			 0.039739 -0.001096 -0.022064
			 0.037689 -0.002964 -0.020532
			 0.034617 -0.000881 -0.022616
			 0.036222 -0.002759 -0.021074
			 0.036690 -0.002652 -0.020651
			 0.034514 -0.002267 -0.021419
			 0.037040 -0.002868 -0.021025
			 0.035791 -0.003702 -0.027065
			 0.038555 -0.004333 -0.024069
			 0.039737 -0.003403 -0.024620
			 0.040406 -0.002312 -0.022200
			 0.035486 -0.001658 -0.026688
			 0.039330 -0.001458 -0.025225
			 0.031046 -0.000619 -0.024712
			 0.031104 -0.000682 -0.022369
			 0.034264 -0.003817 -0.024057
			 0.035468 -0.003068 -0.021286
			 0.031619 -0.002119 -0.020692
			 0.033578 -0.003247 -0.021191
			 0.037479 -0.004636 -0.027930
			 0.031771 -0.004292 -0.026364
			 0.032624 -0.002452 -0.026527
			 0.037133 -0.004221 -0.027840
			 0.038218 -0.004811 -0.027837
			 0.039287 -0.004434 -0.025946
			 0.040086 -0.002892 -0.026038
			 0.032649 -0.001353 -0.025996
			 0.035987 -0.003024 -0.027718
			 0.036996 -0.001615 -0.027404
			 0.036060 -0.001940 -0.027518
			 0.039493 -0.002138 -0.027225
			 0.029444 -0.000789 -0.025429
			 0.028707 -0.000359 -0.021523
			 0.029881 -0.001072 -0.019751
			 0.034209 -0.003511 -0.021588
			 0.032537 -0.004086 -0.021147
			 0.031063 -0.004470 -0.026442
			 0.032570 -0.003453 -0.020991
			 0.031396 -0.003532 -0.019399
			 0.032204 -0.003480 -0.020589
			 0.038808 -0.004254 -0.027839
			 0.037687 -0.003778 -0.027657
			 0.031260 -0.003701 -0.026398
			 0.032086 -0.001950 -0.026300
			 0.036791 -0.003234 -0.027762
			 0.039318 -0.004206 -0.027430
			 0.039541 -0.003620 -0.027348
			 0.028082 -0.000818 -0.026303
			 0.038620 -0.002341 -0.027621
			 0.027964 -0.000452 -0.025744
			 0.027830 -0.000804 -0.021984
			 0.027357 -0.000504 -0.023854
			 0.028462 -0.001527 -0.020216
			 0.029318 -0.002800 -0.019001
			 0.030274 -0.003816 -0.018879
			 0.031880 -0.004245 -0.020686
			 0.029679 -0.005507 -0.026385
			 0.029293 -0.005075 -0.026927
			 0.029684 -0.005346 -0.020657
			 0.030655 -0.004449 -0.019234
			 0.027830 -0.004277 -0.027111
			 0.028042 -0.001311 -0.026616
			 0.027674 -0.001865 -0.026819
			 0.027767 -0.003409 -0.027252
			 0.027481 -0.000994 -0.025876
			 0.027001 -0.001287 -0.025409
			 0.027092 -0.001300 -0.024011
			 0.028296 -0.002365 -0.023263
			 0.028941 -0.004275 -0.022956
			 0.028830 -0.004858 -0.020375
			 0.029331 -0.003521 -0.018976
			 0.028312 -0.005102 -0.026800
			 0.028599 -0.005487 -0.026101
			 0.028321 -0.005531 -0.023189
			 0.028465 -0.005386 -0.022162
			 0.027728 -0.002157 -0.025312
			 0.028833 -0.004465 -0.023571
			 0.028081 -0.005210 -0.026323
			 0.027307 -0.001604 -0.026390
			 0.027627 -0.002712 -0.027024
			 0.028737 -0.003842 -0.023250
			 0.028269 -0.005313 -0.025006
		</DataArray>
	</Points>
			<Polys>
				<DataArray type="Int32" Name="connectivity" format="ascii">
					0 1 2 
					2 3 0 
					1 0 4 
					0 5 4 
					0 3 5 
					2 1 6 
					1 4 7 
					1 8 9 
					6 1 9 
					7 10 1 
					8 1 10 
					6 11 2 
					2 12 13 
					2 11 12 
					13 3 2 
					3 13 14 
					14 15 3 
					15 5 3 
					16 7 4 
					16 4 17 
					17 4 5 
					5 15 17 
					9 11 6 
					7 16 18 
					7 19 10 
					18 19 7 
					9 8 11 
					11 8 20 
					21 8 10 
					21 20 8 
					10 22 23 
					19 22 10 
					10 23 21 
					20 12 11 
					12 24 13 
					20 25 12 
					25 26 12 
					27 24 12 
					26 27 12 
					24 28 13 
					13 28 29 
					29 14 13 
					30 17 14 
					15 14 17 
					14 29 30 
					31 16 26 
					16 32 26 
					18 16 31 
					16 17 33 
					16 34 32 
					33 34 16 
					17 35 33 
					30 35 17 
					18 31 36 
					19 18 37 
					18 36 37 
					22 19 38 
					37 38 19 
					39 20 21 
					40 41 20 
					41 25 20 
					20 39 40 
					21 23 39 
					22 42 23 
					38 43 22 
					22 43 44 
					22 44 42 
					23 40 39 
					40 23 42 
					24 45 28 
					27 46 24 
					24 46 45 
					47 25 41 
					25 47 26 
					26 47 48 
					31 26 48 
					26 32 27 
					27 32 49 
					27 49 46 
					29 28 50 
					28 45 50 
					51 30 29 
					51 29 50 
					51 35 30 
					36 31 52 
					52 31 48 
					34 53 32 
					49 32 53 
					34 33 53 
					33 35 53 
					51 53 35 
					54 37 36 
					54 36 52 
					55 37 56 
					55 57 37 
					38 37 57 
					37 54 56 
					38 57 58 
					38 59 43 
					38 58 59 
					41 40 60 
					60 40 44 
					44 40 42 
					41 61 62 
					62 47 41 
					41 60 63 
					61 41 63 
					44 43 60 
					64 43 59 
					64 60 43 
					51 50 45 
					46 53 45 
					53 51 45 
					49 53 46 
					65 47 62 
					48 47 65 
					48 66 52 
					48 67 66 
					67 48 68 
					65 68 48 
					54 52 69 
					69 52 66 
					70 56 54 
					70 54 69 
					71 55 56 
					71 72 55 
					73 57 55 
					72 73 55 
					70 71 56 
					74 57 73 
					58 57 74 
					75 59 58 
					75 58 74 
					64 59 75 
					63 60 64 
					76 62 61 
					77 76 61 
					61 78 77 
					78 61 63 
					65 62 76 
					64 74 63 
					63 79 78 
					63 74 79 
					74 64 75 
					80 65 72 
					65 81 72 
					76 82 65 
					77 65 82 
					68 65 83 
					77 81 65 
					83 65 80 
					66 67 83 
					83 69 66 
					83 67 84 
					84 67 68 
					84 68 83 
					70 69 83 
					80 71 70 
					83 80 70 
					71 80 72 
					85 73 72 
					85 72 81 
					74 73 79 
					81 79 73 
					85 81 73 
					76 77 82 
					86 77 78 
					81 77 86 
					78 79 86 
					81 86 79 
				</DataArray>
				<DataArray type="Int32" Name="offsets" format="ascii">
					3 6 9 12 15 18 21 24 27 30 33 36 39 42 45 48 51 54 57 60 63 66 69 72 75 78 81 84 87 90 93 96 99 102 105 108 111 114 117 120 123 126 129 132 135 138 141 144 147 150 153 156 159 162 165 168 171 174 177 180 183 186 189 192 195 198 201 204 207 210 213 216 219 222 225 228 231 234 237 240 243 246 249 252 255 258 261 264 267 270 273 276 279 282 285 288 291 294 297 300 303 306 309 312 315 318 321 324 327 330 333 336 339 342 345 348 351 354 357 360 363 366 369 372 375 378 381 384 387 390 393 396 399 402 405 408 411 414 417 420 423 426 429 432 435 438 441 444 447 450 453 456 459 462 465 468 471 474 477 480 483 486 489 492 495 498 501 504 507 510 
				</DataArray>
			</Polys>
		</Piece>
	</PolyData>
</VTKFile>
