<?xml version="1.0"?>
<VTKFile type="PolyData" version="0.1" byte_order="LittleEndian" compressor="vtkZLibDataCompressor">
	<PolyData>
		<Piece NumberOfPoints="52" NumberOfVerts="0" NumberOfLines="0" NumberOfStrips="0" NumberOfPolys="100">
		<PointData Normals="Normals">
		<DataArray type="Float32" Name="Normals" NumberOfComponents="3" format="ascii">
			 0.309414 -0.938854 -0.151050
			 0.632028 -0.346726  0.693053
			 0.166419 -0.604740  0.778842
			 0.190071  0.311347  0.931094
			 0.954300 -0.286096 -0.086377
			 0.610615  0.208387 -0.764019
			-0.102382  0.228218 -0.968212
			-0.349042 -0.414803 -0.840303
			-0.030103 -0.691142 -0.722092
			 0.225869 -0.974144  0.005161
			 0.375401 -0.602281  0.704508
			 0.266502 -0.081431  0.960388
			 0.187449 -0.267689  0.945095
			-0.369818 -0.139770 -0.918531
			 0.885199  0.360672  0.293833
			 0.103832  0.991600  0.077130
			 0.619315  0.766109  0.171831
			-0.186717  0.762186  0.619846
			 0.082945  0.652285  0.753422
			 0.436915  0.677639 -0.591533
			-0.327960  0.473148 -0.817663
			 0.053058  0.316102 -0.947241
			-0.400169  0.189858 -0.896559
			-0.807501 -0.389748 -0.442763
			-0.232859 -0.970000  0.069831
			-0.538626 -0.705754 -0.460210
			-0.435259 -0.597801  0.673189
			 0.140847  0.055628  0.988467
			 0.354016  0.339230  0.871548
			-0.246363  0.968286 -0.041566
			 0.022683  0.795394 -0.605668
			 0.142565  0.989300 -0.031001
			 0.237438  0.963869  0.120748
			 0.350217  0.502503  0.790467
			 0.069398  0.920979 -0.383381
			-0.030799  0.907619 -0.418663
			-0.416577  0.717163 -0.558696
			-0.327346  0.083954 -0.941168
			-0.984815 -0.081085 -0.153504
			-0.965174 -0.120853  0.232021
			-0.967962 -0.217139  0.126096
			-0.989128  0.138955  0.048149
			-0.958294 -0.162953  0.234773
			-0.685064  0.193015  0.702447
			-0.976020  0.008073  0.217532
			 0.042510  0.950310 -0.308388
			-0.004673  0.824387  0.566008
			 0.007124  0.982074  0.188363
			-0.729281  0.669041 -0.143295
			-0.841493  0.338636  0.420970
			-0.973199  0.189815  0.129819
			-0.252595  0.963746  0.085960
		</DataArray>
	</PointData>
	<Points>
		<DataArray type="Float32" NumberOfComponents="3" format="ascii">
			 0.007978 -0.006040 -0.051524
			 0.009544 -0.002688 -0.045829
			 0.008888 -0.002976 -0.045598
			 0.008143 -0.002646 -0.045521
			 0.009328 -0.004314 -0.050025
			 0.008662 -0.003069 -0.051961
			 0.006670 -0.003700 -0.052149
			 0.005924 -0.005612 -0.051332
			 0.003230 -0.006239 -0.049823
			 0.003707 -0.006296 -0.049534
			 0.004797 -0.003998 -0.044922
			 0.006896 -0.003133 -0.045408
			 0.007661 -0.002990 -0.045562
			 0.006018 -0.004273 -0.051960
			 0.009939 -0.002462 -0.046240
			 0.007334  0.000135 -0.047194
			 0.009201 -0.000741 -0.048070
			 0.007268 -0.000230 -0.046848
			 0.005810 -0.000604 -0.047042
			 0.008610 -0.002606 -0.051386
			 0.006052 -0.003259 -0.051831
			 0.002617 -0.001797 -0.051715
			 0.005644 -0.003638 -0.051718
			 0.001369 -0.005034 -0.050688
			 0.002515 -0.006749 -0.049370
			 0.001708 -0.005946 -0.050036
			 0.003121 -0.004482 -0.044720
			 0.003534 -0.003598 -0.044250
			 0.004839 -0.003228 -0.045098
			 0.006817 -0.000144 -0.047454
			 0.006477 -0.001815 -0.050366
			 0.005811 -0.000208 -0.048025
			 0.003953  0.000468 -0.047482
			 0.003619 -0.001019 -0.045311
			 0.003437  0.000350 -0.048779
			 0.002720  0.000037 -0.049110
			 0.000755 -0.001162 -0.051389
			 0.000896 -0.001527 -0.051756
			 0.000629 -0.002123 -0.051463
			 0.001342 -0.002353 -0.049598
			 0.001645 -0.005735 -0.049172
			 0.001856 -0.005191 -0.048573
			 0.001871 -0.004513 -0.047189
			 0.002369 -0.001637 -0.045006
			 0.002109 -0.004076 -0.045707
			 0.002107  0.000520 -0.048270
			 0.002846  0.000524 -0.046065
			 0.002673  0.000664 -0.047030
			 0.001024 -0.000236 -0.049589
			 0.001374  0.000387 -0.047373
			 0.002302 -0.003984 -0.046413
			 0.002163  0.000776 -0.047238
		</DataArray>
	</Points>
			<Polys>
				<DataArray type="Int32" Name="connectivity" format="ascii">
					0 1 2 
					0 2 3 
					0 4 1 
					0 5 4 
					0 6 5 
					7 0 8 
					9 8 0 
					10 9 0 
					10 0 11 
					0 12 11 
					12 0 3 
					13 6 0 
					0 7 13 
					3 2 1 
					3 1 14 
					4 14 1 
					15 3 16 
					3 14 16 
					3 15 17 
					18 12 3 
					3 17 18 
					5 19 4 
					14 4 19 
					5 6 19 
					20 19 6 
					20 6 13 
					7 8 21 
					22 13 7 
					7 21 22 
					8 23 21 
					8 9 24 
					8 24 25 
					8 25 23 
					24 9 10 
					10 26 24 
					27 26 10 
					10 11 28 
					28 27 10 
					18 11 12 
					11 18 28 
					20 13 22 
					16 14 19 
					15 16 19 
					17 15 29 
					19 30 15 
					30 29 15 
					17 29 31 
					18 17 31 
					18 31 32 
					32 33 18 
					28 18 33 
					20 30 19 
					20 22 30 
					21 34 30 
					21 30 22 
					35 21 36 
					21 35 34 
					36 21 37 
					21 23 37 
					38 37 23 
					38 23 39 
					23 25 40 
					40 41 23 
					42 39 23 
					42 23 41 
					40 25 24 
					40 24 42 
					26 42 24 
					43 26 27 
					42 26 44 
					44 26 43 
					33 27 28 
					43 27 33 
					30 31 29 
					31 30 34 
					34 32 31 
					35 45 32 
					33 32 46 
					32 34 35 
					32 47 46 
					32 45 47 
					46 43 33 
					36 48 35 
					35 48 45 
					38 36 37 
					48 36 38 
					38 39 48 
					49 48 39 
					42 49 39 
					41 40 42 
					50 49 42 
					50 42 44 
					44 43 50 
					49 50 43 
					46 49 43 
					45 51 47 
					45 48 51 
					49 46 47 
					47 51 49 
					51 48 49 
				</DataArray>
				<DataArray type="Int32" Name="offsets" format="ascii">
					3 6 9 12 15 18 21 24 27 30 33 36 39 42 45 48 51 54 57 60 63 66 69 72 75 78 81 84 87 90 93 96 99 102 105 108 111 114 117 120 123 126 129 132 135 138 141 144 147 150 153 156 159 162 165 168 171 174 177 180 183 186 189 192 195 198 201 204 207 210 213 216 219 222 225 228 231 234 237 240 243 246 249 252 255 258 261 264 267 270 273 276 279 282 285 288 291 294 297 300 
				</DataArray>
			</Polys>
		</Piece>
	</PolyData>
</VTKFile>
