<?xml version="1.0"?>
<VTKFile type="PolyData" version="0.1" byte_order="LittleEndian" compressor="vtkZLibDataCompressor">
	<PolyData>
		<Piece NumberOfPoints="77" NumberOfVerts="0" NumberOfLines="0" NumberOfStrips="0" NumberOfPolys="150">
		<PointData Normals="Normals">
		<DataArray type="Float32" Name="Normals" NumberOfComponents="3" format="ascii">
			 0.075892  0.378047  0.922670
			-0.152776  0.278160  0.948307
			 0.279529 -0.442328  0.852179
			 0.422437 -0.006396  0.906370
			-0.199721  0.560687  0.803581
			 0.169773  0.939331  0.298051
			-0.121100  0.962477  0.242843
			 0.576399  0.530641  0.621437
			-0.162516 -0.182545  0.969673
			-0.494361 -0.530431  0.688658
			-0.465566  0.471274  0.749099
			-0.468317 -0.681058  0.562885
			-0.099003 -0.992624  0.069975
			 0.708739 -0.704438  0.038172
			 0.682416 -0.611205  0.400919
			 0.980427 -0.071090  0.183601
			 0.728856  0.674360 -0.118356
			 0.707441  0.701918 -0.082701
			-0.161778  0.927671  0.336534
			 0.064529  0.918391 -0.390376
			-0.091472  0.121607 -0.988354
			 0.161543  0.727415 -0.666912
			-0.501395 -0.740678  0.447213
			-0.194203 -0.599808  0.776219
			-0.390199 -0.868782  0.304898
			 0.014620  0.707435  0.706627
			-0.152384  0.286064  0.946016
			 0.012210 -0.927520 -0.373573
			-0.477889 -0.869935 -0.121800
			-0.333498 -0.776070 -0.535251
			 0.299759 -0.891247 -0.340328
			-0.229915 -0.795224 -0.561033
			 0.886066 -0.445124  0.129428
			 0.878735  0.453614 -0.148521
			 0.113333  0.985963  0.122610
			 0.214940  0.957514  0.192268
			-0.096989  0.123021 -0.987653
			-0.340522  0.758990 -0.554959
			-0.041169  0.997495 -0.057521
			-0.368169 -0.601809 -0.708715
			 0.441101 -0.330824 -0.834257
			 0.834764  0.045083 -0.548759
			 0.261065 -0.862982  0.432559
			 0.105116 -0.102368  0.989177
			 0.022867  0.358666  0.933186
			 0.207535  0.317405  0.925302
			 0.509618  0.331014  0.794178
			-0.065807 -0.826493 -0.559087
			 0.431877 -0.793300  0.429136
			 0.131703  0.768084  0.626659
			-0.344255  0.897934  0.274233
			-0.317277  0.413455 -0.853458
			-0.906842 -0.024490 -0.420758
			-0.686149  0.725253  0.056626
			-0.987871  0.151505 -0.034005
			-0.745466  0.380531 -0.547245
			 0.267123 -0.537435  0.799880
			 0.516598  0.171231  0.838932
			-0.793663 -0.410646 -0.448852
			-0.984738 -0.155328  0.078509
			-0.961949 -0.239662 -0.131210
			 0.218423 -0.975432 -0.028695
			-0.047276 -0.958544  0.280996
			-0.903946  0.242795  0.352039
			-0.379310  0.271608  0.884507
			-0.911296  0.398740  0.102696
			-0.969150 -0.167382  0.180917
			-0.901814 -0.171524  0.396624
			-0.459928 -0.249377  0.852219
			 0.090055 -0.121332  0.988518
			-0.690454 -0.722620  0.033064
			-0.897316  0.439628 -0.039382
			-0.696557  0.717205 -0.020636
			-0.945615 -0.175080  0.274152
			-0.975609  0.219511  0.001326
			-0.828990  0.554435  0.073334
			-0.875007  0.464235  0.137292
		</DataArray>
	</PointData>
	<Points>
		<DataArray type="Float32" NumberOfComponents="3" format="ascii">
			 0.057278 -0.002792 -0.006991
			 0.053893 -0.003291 -0.006646
			 0.056591 -0.005602 -0.006523
			 0.057610 -0.004584 -0.006574
			 0.054203 -0.002355 -0.007027
			 0.057075 -0.002013 -0.007503
			 0.054590 -0.002041 -0.007227
			 0.058161 -0.002504 -0.007336
			 0.054952 -0.004558 -0.006434
			 0.053895 -0.004213 -0.006553
			 0.053383 -0.002645 -0.007301
			 0.055465 -0.005636 -0.006462
			 0.055442 -0.005935 -0.009949
			 0.057660 -0.004940 -0.010511
			 0.057597 -0.005117 -0.006787
			 0.058617 -0.003786 -0.007524
			 0.057833 -0.002864 -0.011141
			 0.058131 -0.002400 -0.008662
			 0.052153 -0.002293 -0.008564
			 0.048396 -0.002310 -0.012506
			 0.054153 -0.004255 -0.013650
			 0.057246 -0.003307 -0.013473
			 0.054266 -0.004441 -0.006929
			 0.053412 -0.004296 -0.007078
			 0.054151 -0.004714 -0.007710
			 0.051644 -0.002757 -0.007846
			 0.052713 -0.003288 -0.007314
			 0.049664 -0.005477 -0.012974
			 0.054134 -0.005514 -0.012856
			 0.055314 -0.006169 -0.013425
			 0.056408 -0.006092 -0.013568
			 0.053370 -0.005107 -0.013269
			 0.058050 -0.005022 -0.011953
			 0.058291 -0.003340 -0.012514
			 0.050413 -0.002164 -0.009082
			 0.046679 -0.001381 -0.008529
			 0.050198 -0.003697 -0.013100
			 0.045211 -0.001544 -0.011668
			 0.045470 -0.001239 -0.009863
			 0.054280 -0.005387 -0.013368
			 0.057436 -0.005556 -0.013560
			 0.058217 -0.003982 -0.013306
			 0.050987 -0.005014 -0.007508
			 0.050340 -0.004716 -0.007109
			 0.051554 -0.003759 -0.007283
			 0.051130 -0.003242 -0.007373
			 0.048474 -0.003462 -0.006624
			 0.045798 -0.006617 -0.012340
			 0.049042 -0.005526 -0.007075
			 0.046835 -0.002289 -0.005700
			 0.045089 -0.001414 -0.008350
			 0.044996 -0.002902 -0.012697
			 0.044549 -0.004504 -0.012846
			 0.044578 -0.001528 -0.009810
			 0.044024 -0.002326 -0.011076
			 0.044242 -0.002694 -0.011943
			 0.046924 -0.005785 -0.005179
			 0.047527 -0.003562 -0.005257
			 0.044364 -0.005782 -0.012264
			 0.044566 -0.006366 -0.011462
			 0.044560 -0.006489 -0.010614
			 0.047068 -0.006420 -0.008850
			 0.045819 -0.006632 -0.006614
			 0.045308 -0.002661 -0.006188
			 0.045879 -0.004015 -0.004964
			 0.045209 -0.005842 -0.009883
			 0.045311 -0.004266 -0.009539
			 0.044970 -0.005742 -0.006013
			 0.045750 -0.004749 -0.004941
			 0.046646 -0.005114 -0.004829
			 0.044512 -0.006715 -0.009008
			 0.044519 -0.006372 -0.009930
			 0.044988 -0.005975 -0.009321
			 0.044643 -0.006582 -0.008065
			 0.045334 -0.005498 -0.009338
			 0.045262 -0.005800 -0.008657
			 0.044541 -0.006460 -0.008567
		</DataArray>
	</Points>
			<Polys>
				<DataArray type="Int32" Name="connectivity" format="ascii">
					0 1 2 
					3 0 2 
					1 0 4 
					5 6 0 
					0 7 5 
					0 3 7 
					0 6 4 
					2 1 8 
					8 1 9 
					1 4 10 
					9 1 10 
					11 12 2 
					12 13 2 
					14 2 13 
					11 2 8 
					2 14 3 
					7 3 15 
					15 3 14 
					10 4 6 
					5 16 6 
					7 17 5 
					16 5 17 
					10 6 18 
					19 18 6 
					19 6 20 
					21 20 6 
					6 16 21 
					17 7 15 
					9 22 8 
					8 22 11 
					10 23 9 
					9 23 24 
					9 24 22 
					25 26 10 
					25 10 18 
					23 10 26 
					24 12 11 
					24 11 22 
					24 27 12 
					12 28 29 
					12 29 30 
					31 28 12 
					12 27 31 
					13 12 30 
					13 30 32 
					13 15 14 
					32 16 13 
					15 13 16 
					17 15 16 
					33 16 32 
					16 33 21 
					34 25 18 
					34 18 19 
					35 34 19 
					19 20 36 
					19 37 38 
					37 19 36 
					19 38 35 
					20 31 27 
					27 36 20 
					20 30 29 
					20 29 39 
					30 20 40 
					20 39 31 
					20 21 40 
					33 41 21 
					41 40 21 
					23 42 27 
					24 23 27 
					43 23 26 
					42 23 43 
					25 44 26 
					25 45 44 
					46 25 35 
					25 46 45 
					34 35 25 
					43 26 44 
					27 47 36 
					27 48 47 
					27 42 48 
					28 39 29 
					28 31 39 
					32 30 40 
					41 32 40 
					41 33 32 
					46 35 49 
					35 38 50 
					49 35 50 
					36 51 37 
					51 36 52 
					52 36 47 
					53 38 37 
					54 53 37 
					54 37 55 
					55 37 51 
					50 38 53 
					43 48 42 
					46 48 43 
					45 46 43 
					43 44 45 
					46 56 48 
					57 56 46 
					49 57 46 
					52 47 58 
					59 58 47 
					47 60 59 
					61 60 47 
					47 48 61 
					48 62 61 
					62 48 56 
					63 49 50 
					49 63 64 
					49 64 57 
					50 53 63 
					55 51 52 
					52 54 55 
					52 58 59 
					59 65 52 
					66 54 52 
					52 65 66 
					54 63 53 
					54 66 63 
					56 67 62 
					67 56 68 
					56 69 68 
					57 69 56 
					57 64 69 
					65 59 60 
					60 61 70 
					71 60 70 
					71 72 60 
					65 60 72 
					62 70 61 
					73 70 62 
					62 67 73 
					66 74 63 
					64 63 67 
					67 63 74 
					68 64 67 
					68 69 64 
					65 74 66 
					74 65 72 
					73 67 75 
					75 67 74 
					70 76 71 
					76 70 73 
					76 72 71 
					74 72 75 
					72 76 75 
					75 76 73 
				</DataArray>
				<DataArray type="Int32" Name="offsets" format="ascii">
					3 6 9 12 15 18 21 24 27 30 33 36 39 42 45 48 51 54 57 60 63 66 69 72 75 78 81 84 87 90 93 96 99 102 105 108 111 114 117 120 123 126 129 132 135 138 141 144 147 150 153 156 159 162 165 168 171 174 177 180 183 186 189 192 195 198 201 204 207 210 213 216 219 222 225 228 231 234 237 240 243 246 249 252 255 258 261 264 267 270 273 276 279 282 285 288 291 294 297 300 303 306 309 312 315 318 321 324 327 330 333 336 339 342 345 348 351 354 357 360 363 366 369 372 375 378 381 384 387 390 393 396 399 402 405 408 411 414 417 420 423 426 429 432 435 438 441 444 447 450 
				</DataArray>
			</Polys>
		</Piece>
	</PolyData>
</VTKFile>
