<?xml version="1.0"?>
<VTKFile type="PolyData" version="0.1" byte_order="LittleEndian" compressor="vtkZLibDataCompressor">
	<PolyData>
		<Piece NumberOfPoints="235" NumberOfVerts="0" NumberOfLines="0" NumberOfStrips="0" NumberOfPolys="466">
		<PointData Normals="Normals">
		<DataArray type="Float32" Name="Normals" NumberOfComponents="3" format="ascii">
			 0.332920 -0.264688 -0.905044
			 0.287264 -0.415405 -0.863086
			 0.294371 -0.093507 -0.951106
			 0.627807  0.151836 -0.763416
			 0.600934 -0.518744 -0.608098
			 0.141512 -0.379563 -0.914279
			 0.212908 -0.432212 -0.876278
			 0.561336 -0.477293 -0.676087
			 0.048031 -0.494267 -0.867982
			 0.360963 -0.497893 -0.788548
			-0.086367 -0.130919 -0.987624
			-0.045915  0.154447 -0.986934
			 0.310422  0.208385 -0.927477
			 0.584925  0.455136 -0.671352
			 0.734427  0.241002 -0.634456
			 0.609556  0.436116 -0.662001
			 0.677120  0.368560 -0.636924
			 0.960740 -0.134123 -0.242878
			 0.809228 -0.520130 -0.273158
			 0.311812  0.367604 -0.876151
			 0.338106  0.557185 -0.758439
			 0.462471  0.334102 -0.821277
			 0.709366 -0.704759  0.010691
			 0.673341 -0.730712 -0.112567
			 0.316803 -0.638664 -0.701245
			 0.431637 -0.520827 -0.736498
			 0.009740 -0.463340 -0.886127
			-0.028617 -0.225129 -0.973909
			 0.085557 -0.623000 -0.777529
			 0.254535 -0.815382 -0.519966
			-0.736039 -0.198126 -0.647297
			-0.727631  0.349671 -0.590155
			-0.142282  0.735465 -0.662455
			-0.213190 -0.308276 -0.927101
			 0.578041  0.573981 -0.580012
			 0.576750  0.533815 -0.618386
			 0.933456  0.117065 -0.339050
			 0.788701  0.335923 -0.514885
			 0.426814  0.747530 -0.508949
			 0.700383  0.466771 -0.539989
			 0.704497 -0.703301  0.095136
			 0.964401  0.169588 -0.202907
			 0.979682  0.200161  0.012597
			 0.897190 -0.327230  0.296599
			 0.271408  0.815697 -0.510859
			 0.684200 -0.728877  0.024683
			 0.678346 -0.733298  0.046038
			 0.665911 -0.745391  0.030898
			-0.202654 -0.618300 -0.759366
			-0.009765 -0.414933 -0.909799
			-0.228568 -0.950098 -0.212298
			-0.587205 -0.722264 -0.365410
			-0.038055 -0.993006  0.111759
			-0.597424 -0.462052 -0.655433
			-0.941716 -0.133456 -0.308806
			-0.833772 -0.405527 -0.374663
			-0.914826 -0.353105 -0.195985
			-0.915522 -0.303694 -0.263798
			-0.553089  0.789240 -0.266818
			-0.833310  0.548744 -0.066885
			-0.993430  0.094142 -0.065070
			-0.966895  0.056506 -0.248841
			 0.166554  0.928417 -0.332117
			-0.485358  0.816661 -0.312239
			-0.572489  0.794728 -0.201655
			 0.804625  0.429345 -0.410174
			 0.775607  0.622024 -0.107327
			 0.438997  0.824470 -0.357114
			 0.959091  0.203478 -0.196826
			 0.367719  0.895263 -0.251569
			 0.480712  0.804991 -0.347714
			 0.383754 -0.903295  0.191811
			 0.653799 -0.756157  0.027800
			 0.605088 -0.708795  0.362599
			 0.822108  0.534958  0.194828
			 0.959841  0.207106  0.189242
			 0.854632 -0.232950  0.464045
			 0.609023 -0.396070  0.687182
			 0.594228 -0.610832  0.523237
			 0.893179  0.384020  0.234009
			 0.889813 -0.045976  0.454004
			 0.432273 -0.893980  0.118065
			-0.471040 -0.583916 -0.661183
			-0.691527 -0.715479  0.099403
			-0.827400 -0.472473 -0.303609
			-0.743275 -0.485755 -0.459984
			-0.889902 -0.453586 -0.048317
			-0.870435 -0.482432  0.097990
			-0.485855 -0.849056 -0.207481
			-0.736616 -0.673848  0.057677
			-0.226483 -0.947154  0.227165
			-0.030517 -0.996465  0.078269
			-0.925287 -0.310441 -0.217878
			-0.962448 -0.180291 -0.202953
			-0.930747 -0.358678 -0.071140
			-0.919868 -0.383836 -0.080700
			-0.735824  0.672887  0.076060
			-0.929002  0.366367 -0.052257
			 0.494652  0.869046 -0.008872
			 0.484162  0.868011 -0.110203
			-0.239616  0.947293 -0.212648
			-0.674098  0.706516 -0.215469
			-0.793860  0.587190 -0.158096
			-0.794378  0.603830 -0.065970
			-0.649580  0.752401 -0.109263
			-0.771114  0.636007  0.029642
			 0.823724  0.507993  0.251837
			 0.532119  0.846459 -0.018886
			 0.470923 -0.874042  0.119511
			 0.625653 -0.664228  0.409095
			 0.514142 -0.698581  0.497637
			 0.581403 -0.623876  0.522254
			 0.551397 -0.674796  0.490522
			 0.751137  0.641467  0.155926
			 0.849937 -0.039802  0.525378
			 0.429527 -0.369017  0.824217
			 0.514405 -0.379511  0.768999
			 0.552729 -0.466325  0.690674
			 0.533665 -0.518648  0.667986
			 0.305049 -0.135963  0.942581
			 0.368136 -0.278517  0.887076
			 0.683783 -0.051544  0.727863
			 0.518298 -0.573230  0.634645
			 0.776741  0.617472  0.124104
			 0.766910  0.621575  0.159671
			 0.897690  0.239447  0.369889
			 0.816642  0.510793  0.268675
			 0.858549  0.480730  0.178302
			 0.826463  0.346996  0.443342
			-0.812624 -0.572605 -0.108467
			-0.883307 -0.458729  0.096625
			-0.482992 -0.797293 -0.361999
			-0.493841 -0.756044 -0.429557
			-0.219329 -0.918651 -0.328595
			 0.293071 -0.932838 -0.209576
			-0.774117 -0.545794 -0.320706
			-0.819584 -0.345598 -0.456995
			-0.951646 -0.147332 -0.269562
			-0.924670  0.138560 -0.354664
			-0.973204  0.224448  0.049964
			-0.951122  0.308405  0.015910
			-0.931774  0.351856 -0.089407
			-0.950968  0.304632  0.053470
			-0.909029  0.410196  0.073525
			-0.894752  0.399643 -0.199260
			-0.879921  0.387070 -0.275529
			-0.817133  0.423284 -0.391311
			-0.850217  0.381253 -0.363011
			-0.780852  0.458909 -0.423878
			 0.792122  0.573215  0.209681
			 0.339282  0.926684  0.161694
			 0.164006  0.985050  0.052718
			-0.502591  0.852387 -0.144358
			-0.760257  0.649558 -0.009192
			 0.870560  0.422798  0.251729
			 0.418834 -0.872821  0.250522
			 0.516214 -0.850892 -0.097500
			 0.467406 -0.884026 -0.005374
			 0.336655 -0.725447  0.600325
			 0.400799 -0.804563  0.438222
			 0.747934  0.397748  0.531405
			 0.445276 -0.270340  0.853607
			 0.589426 -0.444194  0.674736
			 0.523154 -0.295594  0.799333
			 0.139517 -0.462423  0.875614
			 0.246581 -0.547149  0.799891
			 0.267661  0.498253  0.824683
			 0.120323  0.269534  0.955444
			 0.260908 -0.033405  0.964786
			 0.856447  0.473083  0.206619
			 0.648415  0.680881  0.340528
			 0.909823  0.297291  0.289553
			 0.908606  0.316405  0.272622
			-0.543565 -0.741001 -0.394278
			-0.146256 -0.899507 -0.411700
			-0.070642 -0.859927 -0.505506
			-0.319943 -0.783805 -0.532246
			 0.082105 -0.977791 -0.192832
			-0.527108 -0.677751 -0.512651
			-0.717924 -0.498256 -0.486134
			-0.568493 -0.650812 -0.503249
			-0.922879 -0.143658 -0.357292
			-0.956655 -0.098527 -0.274049
			-0.876910 -0.171919 -0.448857
			-0.934922 -0.093015 -0.342447
			-0.939623  0.174623 -0.294306
			-0.662193  0.743609 -0.092445
			-0.812865  0.511237 -0.279083
			-0.819568  0.450738 -0.353757
			-0.791963  0.582255 -0.183778
			-0.816766  0.436949 -0.376787
			-0.775813  0.488731 -0.399070
			-0.775083  0.479604 -0.411371
			-0.804798  0.451481 -0.385313
			 0.294690  0.870581  0.394014
			-0.013765  0.951916  0.306051
			-0.108587  0.986187  0.125075
			 0.029954 -0.919314  0.392384
			-0.033969 -0.950371  0.309258
			 0.139759 -0.987174  0.077165
			-0.526836 -0.584369  0.617217
			-0.636025 -0.715838  0.288182
			 0.283409 -0.016073  0.958864
			 0.328328  0.164384  0.930150
			 0.137888 -0.331576  0.933298
			-0.308877 -0.492458  0.813684
			-0.221423 -0.376657  0.899500
			 0.186644  0.830110  0.525434
			-0.431562  0.806165  0.404785
			 0.009230  0.534177  0.845322
			-0.014522  0.399525  0.916607
			 0.070693  0.337628  0.938621
			-0.034292  0.500958  0.864792
			 0.043472 -0.916609 -0.397415
			-0.531993 -0.782760 -0.322909
			-0.298938 -0.945663  0.127895
			-0.880578 -0.430592 -0.197921
			-0.975202 -0.198618 -0.097626
			-0.999335 -0.031791 -0.017854
			-0.996519  0.081117 -0.019250
			-0.881748  0.385252 -0.272217
			-0.974829 -0.222896 -0.005006
			-0.990218 -0.139413 -0.005711
			-0.796002  0.546368 -0.260508
			-0.832843  0.456077 -0.313633
			-0.689368 -0.323043  0.648394
			-0.907531 -0.210973  0.363149
			-0.927840 -0.316584  0.197202
			-0.477559  0.041223  0.877632
			-0.764673  0.594176  0.249460
			 0.056613  0.390477  0.918870
			-0.955611 -0.190630  0.224652
			-0.964568  0.192830  0.180069
			-0.965775 -0.258583  0.020338
			-0.969086 -0.245248  0.026930
		</DataArray>
	</PointData>
	<Points>
		<DataArray type="Float32" NumberOfComponents="3" format="ascii">
			 0.084501  0.022956 -0.035992
			 0.082784  0.023010 -0.036274
			 0.083491  0.025056 -0.036852
			 0.086207  0.026402 -0.035321
			 0.085312  0.020824 -0.034941
			 0.083634  0.021105 -0.035419
			 0.081281  0.021932 -0.036706
			 0.081650  0.021653 -0.036174
			 0.082603  0.020113 -0.035087
			 0.081686  0.020116 -0.035108
			 0.080852  0.023329 -0.037007
			 0.079449  0.028241 -0.037005
			 0.083504  0.026738 -0.036560
			 0.087983  0.031388 -0.031330
			 0.088835  0.030848 -0.031001
			 0.086721  0.032283 -0.032105
			 0.087276  0.031837 -0.031717
			 0.091278  0.028852 -0.026911
			 0.086582  0.021784 -0.033977
			 0.083642  0.028182 -0.036108
			 0.085039  0.030981 -0.034213
			 0.084823  0.029367 -0.035036
			 0.085118  0.020481 -0.032829
			 0.084241  0.019388 -0.033606
			 0.084120  0.019794 -0.034768
			 0.081283  0.020418 -0.035652
			 0.080110  0.020697 -0.035990
			 0.080130  0.022671 -0.036669
			 0.080703  0.019789 -0.035291
			 0.082220  0.017812 -0.033200
			 0.076735  0.025959 -0.036501
			 0.075634  0.029842 -0.035191
			 0.077954  0.030949 -0.035711
			 0.078716  0.022956 -0.036999
			 0.088487  0.032951 -0.029597
			 0.089330  0.032428 -0.029298
			 0.090237  0.031369 -0.028913
			 0.090141  0.031855 -0.029001
			 0.087349  0.033959 -0.030142
			 0.087985  0.033402 -0.029934
			 0.084824  0.020288 -0.024722
			 0.090792  0.031286 -0.026611
			 0.091168  0.031366 -0.024509
			 0.090712  0.028141 -0.022085
			 0.085953  0.035911 -0.027884
			 0.083473  0.018976 -0.029155
			 0.083851  0.019203 -0.031455
			 0.083714  0.019262 -0.027510
			 0.079928  0.020216 -0.035678
			 0.079462  0.021819 -0.036539
			 0.081140  0.017349 -0.031958
			 0.079184  0.019040 -0.034003
			 0.081286  0.017144 -0.029622
			 0.078606  0.022011 -0.036300
			 0.075328  0.028831 -0.034661
			 0.077858  0.022455 -0.035504
			 0.076675  0.024947 -0.035438
			 0.076191  0.026096 -0.035401
			 0.076212  0.031475 -0.032964
			 0.075227  0.030537 -0.033608
			 0.074982  0.029653 -0.033214
			 0.075119  0.029398 -0.033964
			 0.084302  0.037783 -0.025532
			 0.078972  0.034206 -0.029802
			 0.077252  0.032412 -0.032135
			 0.090113  0.033404 -0.027583
			 0.089942  0.034821 -0.026142
			 0.089055  0.035243 -0.025812
			 0.090563  0.031950 -0.027299
			 0.088325  0.035519 -0.025537
			 0.087459  0.035096 -0.027505
			 0.082849  0.018547 -0.023980
			 0.084096  0.019683 -0.025861
			 0.081494  0.021463 -0.014654
			 0.090479  0.032312 -0.022857
			 0.090743  0.031483 -0.022255
			 0.085352  0.031040 -0.009839
			 0.083877  0.028483 -0.008618
			 0.083654  0.024706 -0.011450
			 0.089670  0.031993 -0.017831
			 0.086713  0.033270 -0.011431
			 0.082478  0.018119 -0.025794
			 0.079149  0.020464 -0.035532
			 0.080487  0.017486 -0.030033
			 0.078562  0.020133 -0.034456
			 0.078531  0.021079 -0.035474
			 0.078000  0.020564 -0.032900
			 0.078456  0.019970 -0.031300
			 0.078910  0.019071 -0.026386
			 0.080192  0.018207 -0.028988
			 0.081014  0.018405 -0.025913
			 0.079496  0.019049 -0.025376
			 0.075728  0.027031 -0.034761
			 0.075219  0.024262 -0.027984
			 0.077191  0.023028 -0.033905
			 0.076956  0.024158 -0.034028
			 0.076409  0.031646 -0.031931
			 0.077581  0.028919 -0.020975
			 0.086790  0.037427 -0.019648
			 0.088135  0.035802 -0.023995
			 0.080184  0.039250 -0.019231
			 0.080285  0.038780 -0.020989
			 0.079422  0.036454 -0.025703
			 0.078418  0.033918 -0.028548
			 0.077968  0.033256 -0.030717
			 0.077208  0.032466 -0.031397
			 0.089332  0.033425 -0.022181
			 0.088932  0.035485 -0.024556
			 0.080750  0.019362 -0.019591
			 0.077959  0.018309 -0.014479
			 0.077824  0.020831 -0.010849
			 0.078025  0.019410 -0.013074
			 0.077931  0.020151 -0.012186
			 0.089724  0.032610 -0.021067
			 0.085270  0.032835 -0.008915
			 0.077788  0.028278 -0.005373
			 0.076224  0.026175 -0.005497
			 0.076737  0.024460 -0.007010
			 0.077316  0.022855 -0.008612
			 0.081425  0.031960 -0.005626
			 0.079488  0.030298 -0.005352
			 0.083526  0.033002 -0.006329
			 0.078122  0.021952 -0.010001
			 0.087584  0.034745 -0.016322
			 0.086969  0.034985 -0.014205
			 0.087696  0.033544 -0.013684
			 0.087265  0.034404 -0.013431
			 0.088189  0.034296 -0.019658
			 0.086457  0.034173 -0.011281
			 0.078198  0.020925 -0.029044
			 0.078215  0.020767 -0.030326
			 0.077757  0.018863 -0.024137
			 0.077431  0.020571 -0.026314
			 0.077657  0.018121 -0.021713
			 0.078549  0.017885 -0.021420
			 0.077282  0.022267 -0.029390
			 0.075422  0.022636 -0.027282
			 0.075014  0.022132 -0.025478
			 0.073854  0.023017 -0.021243
			 0.079342  0.036187 -0.022981
			 0.079046  0.035394 -0.024851
			 0.079799  0.037831 -0.021085
			 0.078697  0.034512 -0.026336
			 0.078323  0.033643 -0.027744
			 0.079698  0.038306 -0.019490
			 0.079464  0.038623 -0.017971
			 0.075325  0.035677 -0.010869
			 0.077317  0.037668 -0.013044
			 0.071887  0.030284 -0.009972
			 0.087080  0.036980 -0.018933
			 0.082094  0.039235 -0.015999
			 0.080992  0.039487 -0.016673
			 0.079911  0.039581 -0.017467
			 0.077878  0.033258 -0.030009
			 0.088795  0.033777 -0.020934
			 0.078067  0.017336 -0.016462
			 0.078781  0.017744 -0.019533
			 0.078143  0.017253 -0.018207
			 0.074671  0.020760 -0.007893
			 0.077135  0.017993 -0.013896
			 0.085018  0.033764 -0.008740
			 0.076040  0.027813 -0.004707
			 0.075382  0.023854 -0.006054
			 0.074752  0.027481 -0.003959
			 0.073701  0.025618 -0.004013
			 0.074205  0.023539 -0.005359
			 0.083076  0.033486 -0.006068
			 0.078782  0.030976 -0.005177
			 0.079238  0.030741 -0.005227
			 0.086840  0.035734 -0.016696
			 0.085366  0.036260 -0.012610
			 0.087645  0.035691 -0.019395
			 0.086923  0.036339 -0.017619
			 0.077424  0.021391 -0.027884
			 0.076628  0.018430 -0.021910
			 0.075972  0.019631 -0.024421
			 0.076385  0.020997 -0.026391
			 0.077168  0.016977 -0.019000
			 0.076371  0.021918 -0.027897
			 0.075406  0.021408 -0.026303
			 0.074585  0.018616 -0.022561
			 0.074052  0.019317 -0.020898
			 0.074291  0.018844 -0.021772
			 0.072905  0.018954 -0.018586
			 0.071977  0.020342 -0.017206
			 0.071244  0.024287 -0.014512
			 0.077328  0.038508 -0.012112
			 0.075084  0.036213 -0.009704
			 0.074574  0.034870 -0.010148
			 0.076174  0.037371 -0.010793
			 0.071140  0.030221 -0.008876
			 0.071831  0.031193 -0.008946
			 0.072657  0.032853 -0.008535
			 0.073757  0.034027 -0.009339
			 0.080506  0.038511 -0.012824
			 0.077883  0.038608 -0.011414
			 0.079227  0.039258 -0.014638
			 0.076439  0.017955 -0.013634
			 0.075469  0.017211 -0.015462
			 0.077220  0.016965 -0.017424
			 0.072325  0.023559 -0.005946
			 0.072374  0.018833 -0.013754
			 0.073610  0.028721 -0.002822
			 0.075899  0.029797 -0.004076
			 0.073620  0.027364 -0.003294
			 0.072870  0.025462 -0.004276
			 0.072867  0.027222 -0.003423
			 0.078345  0.038118 -0.010593
			 0.075298  0.036464 -0.008572
			 0.080012  0.033832 -0.006419
			 0.080710  0.032956 -0.005816
			 0.078625  0.031687 -0.005406
			 0.072934  0.031593 -0.004461
			 0.075512  0.018501 -0.022191
			 0.073527  0.017039 -0.018461
			 0.073432  0.017151 -0.016747
			 0.072653  0.017810 -0.017426
			 0.071420  0.021243 -0.015250
			 0.070329  0.027239 -0.008869
			 0.070312  0.029104 -0.007398
			 0.070902  0.030306 -0.007965
			 0.071223  0.021886 -0.013313
			 0.070416  0.025524 -0.010391
			 0.072453  0.033349 -0.007513
			 0.071524  0.031666 -0.007772
			 0.072159  0.027048 -0.003794
			 0.070801  0.027736 -0.006212
			 0.071224  0.022445 -0.009201
			 0.072157  0.028747 -0.003064
			 0.071421  0.032287 -0.006303
			 0.078340  0.032391 -0.005654
			 0.070665  0.026060 -0.007738
			 0.070551  0.030516 -0.005934
			 0.071084  0.022867 -0.011990
			 0.070796  0.023650 -0.010345
		</DataArray>
	</Points>
			<Polys>
				<DataArray type="Int32" Name="connectivity" format="ascii">
					0 1 2 
					0 3 4 
					4 5 0 
					5 1 0 
					2 3 0 
					6 2 1 
					6 1 7 
					1 5 8 
					7 1 9 
					1 8 9 
					10 11 2 
					2 6 10 
					12 2 11 
					2 12 3 
					13 14 3 
					15 16 3 
					3 14 17 
					17 18 3 
					19 3 12 
					18 4 3 
					20 3 21 
					3 19 21 
					3 20 15 
					3 16 13 
					22 23 4 
					4 23 24 
					22 4 18 
					5 4 24 
					5 24 8 
					6 7 25 
					26 27 6 
					27 10 6 
					26 6 28 
					6 25 28 
					7 9 25 
					8 24 29 
					8 29 9 
					25 9 29 
					27 11 10 
					30 31 11 
					19 11 32 
					11 27 33 
					12 11 19 
					32 11 31 
					30 11 33 
					13 16 34 
					34 35 13 
					35 14 13 
					17 14 36 
					35 37 14 
					37 36 14 
					15 20 38 
					38 39 15 
					39 16 15 
					39 34 16 
					40 18 17 
					17 36 41 
					17 41 42 
					42 43 17 
					40 17 43 
					18 40 22 
					32 20 19 
					20 21 19 
					44 38 20 
					44 20 32 
					45 46 22 
					46 23 22 
					40 47 22 
					47 45 22 
					46 29 23 
					23 29 24 
					28 25 29 
					48 49 26 
					27 26 49 
					48 26 28 
					27 49 33 
					48 28 29 
					50 51 29 
					52 29 46 
					48 29 51 
					29 52 50 
					53 30 33 
					30 54 31 
					55 56 30 
					55 30 53 
					30 56 57 
					57 54 30 
					58 32 31 
					59 58 31 
					59 31 60 
					31 61 60 
					61 31 54 
					62 32 63 
					62 44 32 
					64 63 32 
					64 32 58 
					33 48 53 
					48 33 49 
					65 34 66 
					34 39 67 
					35 34 65 
					67 66 34 
					37 35 65 
					36 37 65 
					36 65 68 
					68 41 36 
					69 67 38 
					69 38 70 
					39 38 67 
					70 38 44 
					71 72 40 
					72 47 40 
					40 73 71 
					40 43 73 
					42 41 68 
					66 42 68 
					42 66 74 
					42 74 75 
					43 42 75 
					43 76 77 
					77 78 43 
					79 80 43 
					80 76 43 
					43 75 79 
					73 43 78 
					70 44 62 
					81 52 45 
					52 46 45 
					47 81 45 
					81 47 72 
					51 82 48 
					48 82 53 
					83 51 50 
					50 52 83 
					51 84 85 
					51 86 84 
					51 83 87 
					51 87 86 
					51 85 82 
					88 89 52 
					90 52 81 
					52 89 83 
					91 88 52 
					91 52 90 
					53 82 85 
					85 55 53 
					57 92 54 
					60 54 93 
					92 93 54 
					61 54 60 
					56 55 94 
					55 85 94 
					95 56 94 
					57 56 95 
					95 92 57 
					64 58 96 
					58 59 96 
					96 59 97 
					97 59 60 
					60 93 97 
					98 99 62 
					62 69 70 
					98 62 100 
					100 62 101 
					102 101 62 
					102 62 63 
					69 62 99 
					103 102 63 
					103 63 104 
					63 64 104 
					96 105 64 
					104 64 105 
					68 65 66 
					106 74 66 
					107 106 66 
					107 66 67 
					67 69 107 
					69 99 107 
					71 81 72 
					90 71 108 
					81 71 90 
					73 108 71 
					73 109 108 
					110 73 78 
					111 109 73 
					73 112 111 
					112 73 110 
					113 74 106 
					75 74 79 
					113 79 74 
					80 114 76 
					114 77 76 
					77 115 116 
					117 118 77 
					116 117 77 
					118 78 77 
					119 120 77 
					121 119 77 
					77 120 115 
					114 121 77 
					110 78 122 
					78 118 122 
					123 124 79 
					79 125 80 
					126 79 124 
					123 79 127 
					127 79 113 
					125 79 126 
					80 125 128 
					80 128 114 
					129 130 83 
					130 87 83 
					89 129 83 
					84 94 85 
					86 94 84 
					86 87 94 
					130 94 87 
					131 132 88 
					88 132 129 
					129 89 88 
					133 88 134 
					131 88 133 
					134 88 91 
					108 91 90 
					108 134 91 
					95 93 92 
					93 135 136 
					95 135 93 
					137 93 136 
					138 93 137 
					138 97 93 
					94 129 135 
					130 129 94 
					95 94 135 
					97 105 96 
					139 140 97 
					141 139 97 
					142 143 97 
					140 142 97 
					141 97 144 
					97 145 144 
					97 146 147 
					97 147 145 
					105 97 143 
					148 146 97 
					148 97 138 
					98 149 99 
					149 98 150 
					100 150 98 
					107 99 149 
					151 150 100 
					152 151 100 
					100 101 141 
					100 141 144 
					152 100 144 
					101 102 140 
					140 141 101 
					102 142 140 
					102 143 142 
					143 102 103 
					103 104 153 
					143 103 153 
					104 105 153 
					105 143 153 
					106 149 154 
					149 106 107 
					154 113 106 
					108 109 155 
					156 134 108 
					156 108 157 
					108 155 157 
					109 158 159 
					111 158 109 
					109 159 155 
					158 112 110 
					110 122 158 
					112 158 111 
					127 113 154 
					128 160 114 
					114 160 121 
					120 161 115 
					115 161 116 
					162 117 116 
					116 163 164 
					164 165 116 
					165 162 116 
					161 163 116 
					118 117 162 
					158 122 118 
					158 118 162 
					119 166 167 
					120 119 168 
					119 167 168 
					121 166 119 
					120 168 161 
					121 160 166 
					169 170 123 
					170 124 123 
					169 123 127 
					126 124 170 
					125 126 128 
					128 126 170 
					171 127 154 
					127 172 169 
					171 172 127 
					160 128 170 
					132 173 129 
					173 135 129 
					174 132 131 
					174 131 133 
					174 175 132 
					173 132 176 
					176 132 175 
					133 134 177 
					174 133 177 
					134 156 177 
					135 173 178 
					135 178 136 
					136 178 179 
					179 137 136 
					180 137 179 
					137 181 138 
					182 181 137 
					182 137 180 
					183 184 138 
					181 183 138 
					185 148 138 
					185 138 184 
					139 141 140 
					144 145 152 
					145 147 186 
					186 152 145 
					187 146 188 
					147 146 187 
					146 148 188 
					189 186 147 
					187 189 147 
					148 190 191 
					192 193 148 
					148 185 190 
					148 193 188 
					148 191 192 
					171 154 149 
					172 149 170 
					170 149 150 
					171 149 172 
					150 194 170 
					151 195 150 
					194 150 195 
					152 196 151 
					196 195 151 
					186 196 152 
					197 155 159 
					198 155 197 
					155 199 157 
					155 198 199 
					156 157 177 
					157 199 177 
					165 158 162 
					158 197 159 
					158 200 201 
					201 197 158 
					200 158 165 
					160 170 166 
					161 202 163 
					161 168 203 
					161 203 202 
					202 204 163 
					163 204 164 
					164 205 200 
					164 200 165 
					164 206 205 
					164 204 206 
					207 208 166 
					166 170 207 
					209 210 166 
					209 166 208 
					167 166 210 
					211 212 167 
					203 167 212 
					168 167 203 
					167 210 211 
					169 172 170 
					170 194 207 
					173 176 178 
					213 175 174 
					213 174 214 
					214 174 177 
					176 175 180 
					213 180 175 
					178 176 179 
					179 176 180 
					177 215 214 
					199 215 177 
					180 213 214 
					180 214 182 
					216 181 214 
					214 181 182 
					183 181 216 
					183 216 184 
					217 184 216 
					185 184 217 
					185 218 219 
					220 185 219 
					185 221 222 
					185 222 218 
					190 185 220 
					221 185 217 
					189 208 186 
					186 208 195 
					186 195 196 
					188 193 187 
					223 208 187 
					223 187 193 
					187 208 189 
					191 190 220 
					191 220 224 
					191 224 192 
					224 223 192 
					223 193 192 
					194 195 207 
					207 195 208 
					198 197 201 
					198 215 199 
					215 198 201 
					205 225 200 
					200 226 227 
					226 200 225 
					227 201 200 
					201 216 215 
					201 227 221 
					216 201 217 
					201 221 217 
					202 203 212 
					204 202 228 
					212 228 202 
					204 228 206 
					206 225 205 
					206 228 225 
					208 229 212 
					208 212 209 
					229 208 223 
					230 209 212 
					209 230 210 
					211 210 230 
					230 212 211 
					229 228 212 
					214 215 216 
					227 218 222 
					231 218 227 
					231 219 218 
					220 219 232 
					232 219 226 
					219 231 226 
					220 232 224 
					233 221 227 
					221 233 222 
					222 234 227 
					233 234 222 
					224 229 223 
					224 232 229 
					225 228 232 
					226 225 232 
					231 227 226 
					233 227 234 
					228 229 232 
				</DataArray>
				<DataArray type="Int32" Name="offsets" format="ascii">
					3 6 9 12 15 18 21 24 27 30 33 36 39 42 45 48 51 54 57 60 63 66 69 72 75 78 81 84 87 90 93 96 99 102 105 108 111 114 117 120 123 126 129 132 135 138 141 144 147 150 153 156 159 162 165 168 171 174 177 180 183 186 189 192 195 198 201 204 207 210 213 216 219 222 225 228 231 234 237 240 243 246 249 252 255 258 261 264 267 270 273 276 279 282 285 288 291 294 297 300 303 306 309 312 315 318 321 324 327 330 333 336 339 342 345 348 351 354 357 360 363 366 369 372 375 378 381 384 387 390 393 396 399 402 405 408 411 414 417 420 423 426 429 432 435 438 441 444 447 450 453 456 459 462 465 468 471 474 477 480 483 486 489 492 495 498 501 504 507 510 513 516 519 522 525 528 531 534 537 540 543 546 549 552 555 558 561 564 567 570 573 576 579 582 585 588 591 594 597 600 603 606 609 612 615 618 621 624 627 630 633 636 639 642 645 648 651 654 657 660 663 666 669 672 675 678 681 684 687 690 693 696 699 702 705 708 711 714 717 720 723 726 729 732 735 738 741 744 747 750 753 756 759 762 765 768 771 774 777 780 783 786 789 792 795 798 801 804 807 810 813 816 819 822 825 828 831 834 837 840 843 846 849 852 855 858 861 864 867 870 873 876 879 882 885 888 891 894 897 900 903 906 909 912 915 918 921 924 927 930 933 936 939 942 945 948 951 954 957 960 963 966 969 972 975 978 981 984 987 990 993 996 999 1002 1005 1008 1011 1014 1017 1020 1023 1026 1029 1032 1035 1038 1041 1044 1047 1050 1053 1056 1059 1062 1065 1068 1071 1074 1077 1080 1083 1086 1089 1092 1095 1098 1101 1104 1107 1110 1113 1116 1119 1122 1125 1128 1131 1134 1137 1140 1143 1146 1149 1152 1155 1158 1161 1164 1167 1170 1173 1176 1179 1182 1185 1188 1191 1194 1197 1200 1203 1206 1209 1212 1215 1218 1221 1224 1227 1230 1233 1236 1239 1242 1245 1248 1251 1254 1257 1260 1263 1266 1269 1272 1275 1278 1281 1284 1287 1290 1293 1296 1299 1302 1305 1308 1311 1314 1317 1320 1323 1326 1329 1332 1335 1338 1341 1344 1347 1350 1353 1356 1359 1362 1365 1368 1371 1374 1377 1380 1383 1386 1389 1392 1395 1398 
				</DataArray>
			</Polys>
		</Piece>
	</PolyData>
</VTKFile>
