<?xml version="1.0"?>
<VTKFile type="PolyData" version="0.1" byte_order="LittleEndian" compressor="vtkZLibDataCompressor">
	<PolyData>
		<Piece NumberOfPoints="72" NumberOfVerts="0" NumberOfLines="0" NumberOfStrips="0" NumberOfPolys="80">
		<PointData Normals="Normals">
		<DataArray type="Float32" Name="Normals" NumberOfComponents="3" format="ascii">
			 0.493988  0.859371 -0.132127
			-0.010377  0.946435 -0.322728
			 0.195918  0.980604  0.005724
			 0.658798  0.634931 -0.403543
			-0.203832  0.677010 -0.707184
			 0.605698  0.795549  0.015230
			 0.795269  0.601184 -0.078257
			-0.570435  0.815365 -0.098917
			-0.956218  0.290866 -0.032305
			 0.611537  0.790927 -0.021379
			 0.532244  0.843953  0.066787
			 0.007726  0.971134  0.238408
			-0.612060  0.785956  0.087498
			-0.767334  0.638774 -0.056272
			-0.746393  0.661341  0.074329
			 0.784488  0.109290 -0.610437
			-0.232363  0.048436 -0.971422
			 0.977407  0.138796 -0.159411
			-0.998714 -0.004973 -0.050462
			 0.798241  0.601859  0.024030
			 0.984971  0.126795  0.117281
			-0.979380  0.003616  0.201996
			-0.973229 -0.061005  0.221594
			 0.674742  0.693024  0.253852
			-0.200570  0.806443  0.556257
			-0.972404  0.232664  0.017260
			-0.980285 -0.079971 -0.180682
			 0.670676 -0.251401 -0.697847
			-0.065546 -0.466146 -0.882276
			 0.960925 -0.146581 -0.234811
			-0.895821 -0.264233 -0.357331
			 0.955089 -0.226060  0.191580
			-0.989326  0.144539  0.018502
			 0.829350  0.143958  0.539865
			 0.679878 -0.412745  0.606142
			-0.971011 -0.097056 -0.218443
			-0.961576  0.262501 -0.080400
			-0.218650  0.183401  0.958413
			-0.999090  0.006526  0.042141
			 0.622110 -0.414081 -0.664467
			 0.037547 -0.475147 -0.879105
			 0.895912 -0.385014 -0.221600
			-0.698052 -0.295002 -0.652455
			 0.910107 -0.374978  0.176341
			-0.980294  0.033798 -0.194629
			 0.679560 -0.441512  0.585888
			-0.986320  0.128822  0.102844
			-0.220210 -0.311871  0.924253
			-0.103206 -0.308856  0.945493
			-0.944783  0.138370  0.297051
			-0.826212  0.035253  0.562256
			 0.611688 -0.586582 -0.530809
			 0.044928 -0.563107 -0.825162
			 0.796049 -0.586348 -0.150005
			-0.590317 -0.495926 -0.636854
			 0.867625 -0.490376  0.082210
			-0.870128 -0.441364 -0.219261
			 0.777279 -0.422496  0.466192
			-0.898008 -0.418193  0.136734
			 0.047198 -0.501684  0.863763
			-0.711445 -0.459911  0.531346
			 0.465990 -0.795060 -0.388243
			 0.079727 -0.831177 -0.550263
			 0.645786 -0.754308 -0.118236
			-0.307997 -0.828035 -0.468503
			 0.699280 -0.714552  0.020601
			-0.558223 -0.807355 -0.191221
			 0.599004 -0.759902  0.252474
			-0.610441 -0.786029  0.097577
			 0.070406 -0.866958  0.493383
			-0.449506 -0.826595  0.338652
			 0.096243 -0.992191 -0.079331
		</DataArray>
	</PointData>
	<Points>
		<DataArray type="Float32" NumberOfComponents="3" format="ascii">
			 0.005482  0.049127 -0.007546
			 0.000000  0.050274 -0.012600
			 0.000000  0.052920  0.000000
			 0.010147  0.044365 -0.013966
			 0.000000  0.044982 -0.021764
			 0.005758  0.047980 -0.001871
			 0.012139  0.043747 -0.003944
			-0.004954  0.050979 -0.006818
			-0.007935  0.043395 -0.010922
			 0.005758  0.047980  0.001871
			 0.003895  0.049744  0.005362
			 0.000000  0.051509  0.007200
			-0.003367  0.051596  0.004633
			-0.004046  0.051685  0.001315
			-0.004046  0.051685 -0.001315
			 0.012023  0.033957 -0.016548
			 0.000000  0.035280 -0.024709
			 0.015407  0.032634 -0.005006
			-0.008176  0.035015 -0.011253
			 0.012139  0.043747  0.003944
			 0.015407  0.032634  0.005006
			-0.004981  0.041807 -0.001618
			-0.002957  0.034751 -0.000961
			 0.008993  0.046569  0.012378
			 0.000000  0.049392  0.017836
			-0.006781  0.045599  0.009333
			-0.004981  0.041807  0.001618
			 0.011013  0.023814 -0.015158
			 0.000000  0.023814 -0.021436
			 0.015251  0.023814 -0.004955
			-0.007358  0.025577 -0.010128
			 0.015251  0.023814  0.004955
			-0.003424  0.027342 -0.001112
			 0.012600  0.034927  0.017343
			 0.011590  0.023460  0.015953
			-0.002957  0.034751  0.000961
			-0.003424  0.027342  0.001112
			 0.000000  0.037220  0.026673
			-0.008752  0.035986  0.012047
			 0.008512  0.016493 -0.011716
			 0.000000  0.018345 -0.015546
			 0.012761  0.014641 -0.004146
			-0.007887  0.015435 -0.010856
			 0.012761  0.014641  0.004146
			-0.010738  0.012524 -0.003489
			 0.009089  0.016229  0.012511
			-0.010738  0.012524  0.003489
			 0.000000  0.023109  0.023400
			 0.000000  0.017816  0.017509
			-0.007935  0.025225  0.010922
			-0.008464  0.015171  0.011650
			 0.006925  0.008732 -0.009531
			 0.000000  0.008643 -0.013418
			 0.009649  0.008820 -0.003135
			-0.006925  0.007937 -0.009531
			 0.009649  0.008820  0.003135
			-0.009649  0.007232 -0.003135
			 0.007551  0.008556  0.010392
			-0.009649  0.007232  0.003135
			 0.000000  0.008291  0.015546
			-0.007551  0.007761  0.010392
			 0.003991  0.003969 -0.005495
			 0.000000  0.004233 -0.008182
			 0.005135  0.003705 -0.001669
			-0.004424  0.003616 -0.006089
			 0.005135  0.003705  0.001669
			-0.006536  0.002999 -0.002124
			 0.004617  0.003440  0.006355
			-0.006536  0.002999  0.002124
			 0.000000  0.003174  0.010309
			-0.005049  0.003087  0.006950
			 0.000000  0.000000  0.000000
		</DataArray>
	</Points>
			<Polys>
				<DataArray type="Int32" Name="connectivity" format="ascii">
					0 1 2 
					0 3 4 1 
					5 0 2 
					5 6 3 0 
					1 7 2 
					1 4 8 7 
					9 5 2 
					10 9 2 
					11 10 2 
					12 11 2 
					13 12 2 
					14 13 2 
					7 14 2 
					3 15 16 4 
					6 17 15 3 
					4 16 18 8 
					9 19 6 5 
					19 20 17 6 
					7 8 21 14 
					8 18 22 21 
					10 23 19 9 
					11 24 23 10 
					12 25 24 11 
					13 26 25 12 
					14 21 26 13 
					15 27 28 16 
					17 29 27 15 
					16 28 30 18 
					20 31 29 17 
					18 30 32 22 
					23 33 20 19 
					33 34 31 20 
					21 22 35 26 
					22 32 36 35 
					24 37 33 23 
					25 38 37 24 
					26 35 38 25 
					27 39 40 28 
					29 41 39 27 
					28 40 42 30 
					31 43 41 29 
					30 42 44 32 
					34 45 43 31 
					32 44 46 36 
					37 47 34 33 
					47 48 45 34 
					35 36 49 38 
					36 46 50 49 
					38 49 47 37 
					39 51 52 40 
					41 53 51 39 
					40 52 54 42 
					43 55 53 41 
					42 54 56 44 
					45 57 55 43 
					44 56 58 46 
					48 59 57 45 
					46 58 60 50 
					49 50 48 47 
					50 60 59 48 
					51 61 62 52 
					53 63 61 51 
					52 62 64 54 
					55 65 63 53 
					54 64 66 56 
					57 67 65 55 
					56 66 68 58 
					59 69 67 57 
					58 68 70 60 
					60 70 69 59 
					61 71 62 
					63 71 61 
					62 71 64 
					65 71 63 
					64 71 66 
					67 71 65 
					66 71 68 
					69 71 67 
					68 71 70 
					70 71 69 
				</DataArray>
				<DataArray type="Int32" Name="offsets" format="ascii">
					3 7 10 14 17 21 24 27 30 33 36 39 42 46 50 54 58 62 66 70 74 78 82 86 90 94 98 102 106 110 114 118 122 126 130 134 138 142 146 150 154 158 162 166 170 174 178 182 186 190 194 198 202 206 210 214 218 222 226 230 234 238 242 246 250 254 258 262 266 270 273 276 279 282 285 288 291 294 297 300 
				</DataArray>
			</Polys>
		</Piece>
	</PolyData>
</VTKFile>
