<?xml version="1.0"?>
<VTKFile type="PolyData" version="0.1" byte_order="LittleEndian" compressor="vtkZLibDataCompressor">
	<PolyData>
		<Piece NumberOfPoints="72" NumberOfVerts="0" NumberOfLines="0" NumberOfStrips="0" NumberOfPolys="140">
		<PointData Normals="Normals">
		<DataArray type="Float32" Name="Normals" NumberOfComponents="3" format="ascii">
			 0.195918  0.980604 -0.005724
			-0.104613  0.901729  0.419453
			 0.563873  0.809157  0.165263
			 0.641653  0.766390 -0.030451
			-0.718357  0.688928  0.096654
			 0.598809  0.800432  0.027122
			 0.550272  0.834893 -0.012382
			 0.221821  0.960157 -0.169984
			-0.429891  0.880781 -0.198539
			-0.776434  0.630196  0.001691
			-0.849552  0.527221 -0.017306
			-0.197574  0.647174  0.736295
			-0.964923  0.241596  0.102737
			 0.714150  0.580794  0.390728
			 0.802834  0.590240  0.084108
			-0.989372 -0.073041 -0.125726
			 0.807911  0.589107 -0.015282
			 0.697527  0.677377 -0.233703
			-0.024461  0.836559 -0.547330
			-0.913298  0.375289 -0.158257
			-0.985639 -0.016952  0.168012
			-0.210445  0.040783  0.976755
			-0.998157  0.017347  0.058161
			-0.978046 -0.058563 -0.199989
			 0.811989  0.050035  0.581524
			 0.980531  0.118142  0.156847
			-0.967340 -0.115724  0.225524
			 0.983363  0.148333 -0.104857
			 0.834370  0.184619 -0.519368
			-0.203851  0.172730 -0.963644
			-0.997970 -0.009351 -0.062992
			-0.094260 -0.417621  0.903719
			-0.973289  0.041306  0.225838
			-0.950947  0.234004 -0.202340
			-0.973828  0.189316  0.125771
			 0.703028 -0.355494  0.615935
			 0.959834 -0.178228  0.216686
			-0.991677 -0.089928 -0.092135
			 0.976703 -0.161917 -0.140835
			 0.743277 -0.302034 -0.596920
			-0.280362 -0.483410 -0.829284
			-0.007982 -0.461832  0.886931
			-0.765251 -0.218570  0.605491
			-0.995392  0.051006  0.081201
			-0.983039  0.134609 -0.124561
			-0.872341  0.002909 -0.488889
			 0.622716 -0.357575  0.695963
			 0.903448 -0.356271  0.238437
			-0.143979 -0.368975 -0.918219
			 0.887366 -0.416776 -0.197181
			 0.638015 -0.490892 -0.593264
			 0.041670 -0.539310  0.841076
			-0.610678 -0.461262  0.643669
			-0.884928 -0.416626  0.208145
			-0.898606 -0.416987 -0.136491
			-0.715354 -0.453940 -0.531231
			 0.012228 -0.505488 -0.862747
			 0.607343 -0.567498  0.555950
			 0.797877 -0.584273  0.148381
			 0.712374 -0.487667 -0.504682
			 0.820913 -0.551330 -0.148787
			 0.135811 -0.813599  0.565343
			-0.307112 -0.804111  0.509006
			-0.593302 -0.771568  0.229511
			-0.655221 -0.751397 -0.078020
			-0.520122 -0.789051 -0.326913
			-0.030765 -0.841887 -0.538775
			 0.568248 -0.755977 -0.324949
			 0.515048 -0.773506  0.369342
			 0.668615 -0.737568  0.094585
			 0.703210 -0.708995 -0.053120
			 0.096243 -0.992191  0.079331
		</DataArray>
	</PointData>
	<Points>
		<DataArray type="Float32" NumberOfComponents="3" format="ascii">
			 0.000000  0.052920  0.000000
			 0.000000  0.050274  0.012600
			 0.005482  0.049127  0.007546
			 0.005758  0.047980  0.001871
			-0.004954  0.050979  0.006818
			 0.005758  0.047980 -0.001871
			 0.003895  0.049744 -0.005362
			 0.000000  0.051509 -0.007200
			-0.003367  0.051596 -0.004633
			-0.004046  0.051685 -0.001315
			-0.004046  0.051685  0.001315
			 0.000000  0.044982  0.021764
			-0.007935  0.043395  0.010922
			 0.010147  0.044365  0.013966
			 0.012139  0.043747  0.003944
			-0.004981  0.041807  0.001618
			 0.012139  0.043747 -0.003944
			 0.008993  0.046569 -0.012378
			 0.000000  0.049392 -0.017836
			-0.006781  0.045599 -0.009333
			-0.004981  0.041807 -0.001618
			 0.000000  0.035280  0.024709
			-0.008176  0.035015  0.011253
			-0.002957  0.034751  0.000961
			 0.012023  0.033957  0.016548
			 0.015407  0.032634  0.005006
			-0.002957  0.034751 -0.000961
			 0.015407  0.032634 -0.005006
			 0.012600  0.034927 -0.017343
			 0.000000  0.037220 -0.026673
			-0.008752  0.035986 -0.012047
			 0.000000  0.023814  0.021436
			-0.007358  0.025577  0.010128
			-0.003424  0.027342  0.001112
			-0.003424  0.027342 -0.001112
			 0.011013  0.023814  0.015158
			 0.015251  0.023814  0.004955
			-0.007935  0.025225 -0.010922
			 0.015251  0.023814 -0.004955
			 0.011590  0.023460 -0.015953
			 0.000000  0.023109 -0.023400
			 0.000000  0.018345  0.015546
			-0.007887  0.015435  0.010856
			-0.010738  0.012524  0.003489
			-0.010738  0.012524 -0.003489
			-0.008464  0.015171 -0.011650
			 0.008512  0.016493  0.011716
			 0.012761  0.014641  0.004146
			 0.000000  0.017816 -0.017509
			 0.012761  0.014641 -0.004146
			 0.009089  0.016229 -0.012511
			 0.000000  0.008643  0.013418
			-0.006925  0.007937  0.009531
			-0.009649  0.007232  0.003135
			-0.009649  0.007232 -0.003135
			-0.007551  0.007761 -0.010392
			 0.000000  0.008291 -0.015546
			 0.006925  0.008732  0.009531
			 0.009649  0.008820  0.003135
			 0.007551  0.008556 -0.010392
			 0.009649  0.008820 -0.003135
			 0.000000  0.004233  0.008182
			-0.004424  0.003616  0.006089
			-0.006536  0.002999  0.002124
			-0.006536  0.002999 -0.002124
			-0.005049  0.003087 -0.006950
			 0.000000  0.003174 -0.010309
			 0.004617  0.003440 -0.006355
			 0.003991  0.003969  0.005495
			 0.005135  0.003705  0.001669
			 0.005135  0.003705 -0.001669
			 0.000000  0.000000  0.000000
		</DataArray>
	</Points>
			<Polys>
				<DataArray type="Int32" Name="connectivity" format="ascii">
					0 1 2 
					0 2 3 
					0 4 1 
					0 3 5 
					0 5 6 
					0 6 7 
					0 7 8 
					0 8 9 
					0 9 10 
					0 10 4 
					1 11 2 
					12 11 1 
					4 12 1 
					11 13 2 
					2 13 3 
					13 14 3 
					3 14 5 
					15 12 4 
					10 15 4 
					14 16 5 
					5 16 6 
					16 17 6 
					6 17 7 
					17 18 7 
					7 18 8 
					18 19 8 
					8 19 9 
					19 20 9 
					9 20 10 
					20 15 10 
					11 21 13 
					22 21 11 
					12 22 11 
					23 22 12 
					15 23 12 
					21 24 13 
					13 24 14 
					24 25 14 
					14 25 16 
					26 23 15 
					20 26 15 
					25 27 16 
					16 27 17 
					27 28 17 
					17 28 18 
					28 29 18 
					18 29 19 
					29 30 19 
					19 30 20 
					30 26 20 
					21 31 24 
					32 31 21 
					22 32 21 
					33 32 22 
					23 33 22 
					34 33 23 
					26 34 23 
					31 35 24 
					24 35 25 
					35 36 25 
					25 36 27 
					37 34 26 
					30 37 26 
					36 38 27 
					27 38 28 
					38 39 28 
					28 39 29 
					39 40 29 
					29 40 30 
					40 37 30 
					31 41 35 
					42 41 31 
					32 42 31 
					43 42 32 
					33 43 32 
					44 43 33 
					34 44 33 
					45 44 34 
					37 45 34 
					41 46 35 
					35 46 36 
					46 47 36 
					36 47 38 
					48 45 37 
					40 48 37 
					47 49 38 
					38 49 39 
					49 50 39 
					39 50 40 
					50 48 40 
					41 51 46 
					52 51 41 
					42 52 41 
					53 52 42 
					43 53 42 
					54 53 43 
					44 54 43 
					55 54 44 
					45 55 44 
					56 55 45 
					48 56 45 
					51 57 46 
					46 57 47 
					57 58 47 
					47 58 49 
					59 56 48 
					50 59 48 
					58 60 49 
					49 60 50 
					60 59 50 
					51 61 57 
					62 61 51 
					52 62 51 
					63 62 52 
					53 63 52 
					64 63 53 
					54 64 53 
					65 64 54 
					55 65 54 
					66 65 55 
					56 66 55 
					67 66 56 
					59 67 56 
					61 68 57 
					57 68 58 
					68 69 58 
					58 69 60 
					70 67 59 
					60 70 59 
					69 70 60 
					61 71 68 
					62 71 61 
					63 71 62 
					64 71 63 
					65 71 64 
					66 71 65 
					67 71 66 
					70 71 67 
					68 71 69 
					69 71 70 
				</DataArray>
				<DataArray type="Int32" Name="offsets" format="ascii">
					3 6 9 12 15 18 21 24 27 30 33 36 39 42 45 48 51 54 57 60 63 66 69 72 75 78 81 84 87 90 93 96 99 102 105 108 111 114 117 120 123 126 129 132 135 138 141 144 147 150 153 156 159 162 165 168 171 174 177 180 183 186 189 192 195 198 201 204 207 210 213 216 219 222 225 228 231 234 237 240 243 246 249 252 255 258 261 264 267 270 273 276 279 282 285 288 291 294 297 300 303 306 309 312 315 318 321 324 327 330 333 336 339 342 345 348 351 354 357 360 363 366 369 372 375 378 381 384 387 390 393 396 399 402 405 408 411 414 417 420 
				</DataArray>
			</Polys>
		</Piece>
	</PolyData>
</VTKFile>
