<?xml version="1.0"?>
<VTKFile type="PolyData" version="0.1" byte_order="LittleEndian" compressor="vtkZLibDataCompressor">
	<PolyData>
		<Piece NumberOfPoints="845" NumberOfVerts="0" NumberOfLines="0" NumberOfStrips="0" NumberOfPolys="1690">
		<PointData Normals="Normals">
		<DataArray type="Float32" Name="Normals" NumberOfComponents="3" format="ascii">
			 0.453349 -0.709932 -0.538954
			 0.158145 -0.881810 -0.444298
			 0.200753 -0.700225 -0.685116
			 0.412551 -0.443702 -0.795569
			 0.466245 -0.841843 -0.271877
			 0.704620 -0.423018 -0.569708
			 0.711276 -0.615795 -0.338943
			 0.042800 -0.642834 -0.764809
			 0.165113 -0.983438 -0.074751
			-0.206517 -0.938016 -0.278346
			 0.706934  0.060901 -0.704653
			 0.235452 -0.196839 -0.951744
			 0.699378 -0.708289 -0.095903
			 0.503220 -0.863366  0.037004
			 0.920657 -0.100867 -0.377117
			 0.893698 -0.435354 -0.108492
			-0.262408 -0.750207 -0.606904
			-0.348468 -0.544141 -0.763205
			-0.115131 -0.327436 -0.937833
			 0.041329 -0.987134 -0.154462
			 0.316855 -0.947331 -0.046547
			-0.523537 -0.703305 -0.480907
			-0.335129 -0.916102 -0.220105
			-0.527479 -0.811281 -0.252167
			-0.097484 -0.966104 -0.239039
			 0.324225 -0.020757 -0.945752
			 0.758511  0.534797 -0.372362
			-0.256839 -0.130107 -0.957656
			 0.497092 -0.827772 -0.260178
			 0.486757 -0.873263  0.021905
			 0.969177  0.177636 -0.170711
			 0.764249 -0.538888 -0.354294
			-0.574802 -0.207689 -0.791497
			-0.645705 -0.493311 -0.582846
			 0.139198 -0.912444 -0.384799
			 0.314331 -0.739384 -0.595405
			 0.380868 -0.829718 -0.408054
			-0.476364 -0.692382 -0.541926
			-0.312845 -0.849684 -0.424459
			 0.291103 -0.773296 -0.563269
			 0.381634 -0.720017 -0.579596
			-0.505826 -0.087021 -0.858235
			-0.422463 -0.408146 -0.809285
			-0.302924 -0.760486 -0.574368
			 0.849151  0.171060 -0.499680
			 0.768658 -0.604809 -0.208255
			 0.247114 -0.874151 -0.418086
			 0.881301  0.313364 -0.353710
			 0.772627  0.339599 -0.536396
			 0.719360  0.141844 -0.680001
			 0.336366 -0.784724 -0.520639
			-0.328951 -0.481020 -0.812657
			-0.363529 -0.621524 -0.693942
			 0.971006  0.126317 -0.202958
			 0.142084 -0.709418 -0.690317
			-0.354400 -0.419831 -0.835549
			-0.470097 -0.488293 -0.735241
			-0.489153 -0.434191 -0.756444
			-0.336753 -0.415348 -0.845035
			-0.509228 -0.525562 -0.681522
			 0.396560 -0.646426 -0.651823
			 0.203024 -0.219882 -0.954166
			 0.404838 -0.454315 -0.793539
			 0.369907 -0.513180 -0.774477
			 0.191312 -0.374398 -0.907318
			 0.711100 -0.425501 -0.559719
			 0.135605 -0.531604 -0.836067
			 0.583418 -0.536320 -0.609905
			 0.825155 -0.500707 -0.261558
			-0.468469 -0.490411 -0.734870
			-0.190510 -0.835454 -0.515482
			-0.006065 -0.996188 -0.087022
			 0.525576 -0.832683 -0.174380
			 0.335743 -0.871305 -0.357916
			 0.479612 -0.875977 -0.051340
			 0.340857 -0.937581 -0.068985
			 0.620562 -0.773335  0.129831
			 0.202856 -0.970164  0.132784
			 0.439896 -0.350388 -0.826874
			 0.762069 -0.221509 -0.608428
			 0.633772 -0.070250 -0.770324
			 0.273422 -0.570597 -0.774377
			-0.172747 -0.106172 -0.979227
			-0.290143 -0.233492 -0.928061
			-0.677083 -0.293261 -0.674949
			-0.628861 -0.027993 -0.777014
			-0.550485 -0.581566 -0.598954
			-0.625242 -0.280284 -0.728364
			-0.624169 -0.441187 -0.644800
			-0.571028 -0.609257 -0.550212
			-0.449035 -0.674594 -0.585909
			-0.412746 -0.668399 -0.618776
			 0.208118 -0.590859 -0.779470
			 0.412368 -0.334125 -0.847534
			 0.452890 -0.385718 -0.803811
			-0.189106 -0.500423 -0.844876
			-0.075619 -0.754526 -0.651899
			-0.114401 -0.847652 -0.518073
			 0.314736 -0.182079 -0.931552
			-0.199201  0.236626 -0.950961
			-0.066390  0.185738 -0.980354
			 0.083486  0.078704 -0.993396
			 0.298068 -0.227562 -0.927023
			 0.509363 -0.658367 -0.554168
			 0.119722 -0.287701 -0.950208
			 0.215115 -0.437496 -0.873111
			 0.237793 -0.300044 -0.923812
			 0.878183  0.033086 -0.477179
			 0.992915  0.022776  0.116622
			 0.928470  0.353027 -0.115397
			 0.815774 -0.422186  0.395313
			 0.649521 -0.756007  0.081098
			 0.544539 -0.791903 -0.276346
			 0.175936 -0.980444 -0.088183
			 0.365475 -0.674586  0.641375
			 0.355217 -0.444731  0.822213
			 0.134993 -0.987778  0.077916
			 0.119959 -0.873138 -0.472483
			 0.227603 -0.954293 -0.193707
			-0.227465 -0.886763 -0.402382
			 0.707020 -0.670630 -0.224451
			 0.586085 -0.721118 -0.369450
			 0.246786 -0.103897  0.963484
			 0.458074 -0.194039  0.867478
			 0.826547 -0.536040  0.171701
			-0.148428 -0.720677 -0.677195
			-0.377946 -0.709226 -0.595110
			-0.491057  0.200110 -0.847832
			-0.393442  0.266888 -0.879758
			-0.552195  0.101173 -0.827554
			-0.670365 -0.493687 -0.553971
			-0.653058 -0.423149 -0.628060
			-0.718779 -0.382561 -0.580520
			-0.651811 -0.125121 -0.747989
			-0.618958 -0.605385 -0.500400
			-0.658639 -0.578599 -0.481059
			-0.829007 -0.273507 -0.487792
			-0.755414 -0.272711 -0.595800
			-0.600953 -0.589059 -0.540246
			-0.462827 -0.611288 -0.641964
			 0.721168 -0.496648 -0.482968
			 0.336589 -0.896566 -0.287883
			 0.930576 -0.019924 -0.365556
			-0.228678  0.082813 -0.969973
			-0.434067  0.156535 -0.887177
			-0.030865  0.036023 -0.998874
			 0.040704 -0.143388 -0.988829
			 0.010208 -0.173587 -0.984766
			 0.547499 -0.444785 -0.708809
			 0.415809 -0.716419 -0.560220
			 0.217525 -0.416795 -0.882590
			 0.894395  0.446895  0.018503
			 0.904372  0.378862  0.196405
			 0.880170  0.191286  0.434408
			 0.747535  0.629003  0.213417
			 0.752727  0.647519  0.118829
			 0.524469 -0.851269  0.016554
			 0.739321  0.060272  0.670650
			 0.672224 -0.203541  0.711819
			 0.181865 -0.818794  0.544520
			 0.069925 -0.060370  0.995724
			-0.053989  0.201890  0.977919
			-0.469312 -0.787252 -0.399975
			-0.245948 -0.694825 -0.675816
			 0.558101 -0.327871 -0.762249
			 0.812724 -0.439263 -0.382790
			 0.973437 -0.220835  0.060442
			 0.872095 -0.369868 -0.320387
			-0.130033  0.273472  0.953050
			-0.100007  0.250440  0.962953
			 0.600268 -0.006337  0.799774
			-0.426495  0.262000 -0.865712
			-0.533466  0.082802 -0.841759
			-0.753404 -0.030157 -0.656866
			-0.658856 -0.426856 -0.619438
			-0.762868 -0.150154 -0.628876
			-0.649141 -0.154756 -0.744760
			-0.981844  0.045664 -0.184112
			-0.841491 -0.202140 -0.501031
			-0.659401 -0.378460 -0.649583
			-0.473764 -0.489201 -0.732277
			-0.506535 -0.396656 -0.765563
			 0.073414 -0.149142 -0.986087
			 0.867420 -0.453189 -0.205433
			 0.143887 -0.988791  0.039866
			 0.354894 -0.934903 -0.002356
			 0.989572 -0.137735 -0.042149
			 0.906995  0.406108  0.111513
			-0.061704 -0.276079 -0.959152
			-0.438686 -0.061188 -0.896555
			-0.480498  0.036396 -0.876240
			 0.022824 -0.285018 -0.958250
			 0.031481 -0.361897 -0.931686
			-0.038111 -0.319397 -0.946854
			 0.043727 -0.466550 -0.883414
			 0.379241 -0.805714 -0.454973
			 0.488544 -0.693370 -0.529682
			 0.121215 -0.448659 -0.885444
			 0.202933  0.650420  0.731964
			 0.333825  0.660018  0.673006
			 0.840537  0.473960  0.262412
			 0.805906  0.298874  0.511068
			 0.634376  0.750330  0.185938
			 0.424867  0.690781  0.585072
			 0.429667  0.786787  0.443117
			 0.688689  0.587716  0.424614
			 0.566445  0.753894  0.332842
			 0.712010 -0.692167  0.118095
			 0.701504 -0.709420 -0.067934
			 0.621127  0.374133  0.688641
			 0.433670  0.382741  0.815745
			 0.405690  0.397427  0.823084
			 0.695967  0.146533  0.702963
			 0.748864 -0.436943  0.498280
			 0.055479 -0.966016  0.252457
			-0.244553 -0.723862  0.645149
			-0.355110 -0.316623  0.879572
			-0.343977 -0.071841  0.936226
			-0.294984  0.026783  0.955127
			-0.245455  0.203680  0.947769
			-0.138932  0.259340  0.955741
			 0.630498 -0.083368 -0.771701
			 0.766883 -0.385620 -0.513018
			 0.606581  0.398283  0.688063
			 0.981346  0.148597 -0.121977
			 0.741223 -0.306089 -0.597409
			 0.873580 -0.290573 -0.390417
			 0.831143 -0.233349 -0.504727
			 0.781483 -0.391143 -0.486098
			 0.613783 -0.390187 -0.686312
			-0.171238  0.163701  0.971535
			-0.683451  0.314305  0.658868
			-0.487261  0.589186  0.644544
			-0.468616  0.145425  0.871350
			 0.171054  0.256568  0.951269
			-0.096737  0.209552  0.973001
			-0.489682 -0.034706  0.871210
			-0.615933 -0.053891  0.785953
			-0.716041  0.149223  0.681922
			-0.168667  0.324456  0.930742
			-0.479054 -0.048697 -0.876433
			-0.481641 -0.149372 -0.863545
			-0.458069 -0.008160 -0.888879
			-0.285664 -0.806460 -0.517705
			-0.475610 -0.853153 -0.214301
			-0.298276 -0.667902 -0.681864
			-0.951542 -0.304870  0.040271
			-0.994732 -0.007217 -0.102252
			-0.802386 -0.058275  0.593953
			-0.871888  0.167871  0.460034
			-0.858203 -0.024505 -0.512725
			-0.543085 -0.136235 -0.828552
			-0.495962 -0.354865 -0.792523
			-0.633027 -0.162333 -0.756918
			-0.249836  0.260428 -0.932609
			 0.226692  0.269565 -0.935919
			 0.388030  0.134994 -0.911707
			 0.785073 -0.594481 -0.173930
			-0.092436 -0.868847 -0.486375
			-0.491780 -0.842041  0.221629
			 0.978137 -0.130728 -0.161733
			 0.476286  0.712545  0.515200
			 0.843457  0.385276 -0.374357
			 0.088220 -0.570281 -0.816699
			-0.136983 -0.308190 -0.941411
			-0.307472 -0.039219 -0.950748
			 0.048911 -0.372300 -0.926823
			 0.089156 -0.413922 -0.905936
			 0.000225 -0.361260 -0.932465
			 0.906035 -0.397658  0.144802
			 0.410430 -0.598573 -0.687937
			 0.098202 -0.472918 -0.875617
			-0.231757  0.608620  0.758861
			-0.522871  0.395544  0.755083
			-0.676711  0.499716  0.540691
			 0.073738  0.447233  0.891373
			-0.263744  0.358967  0.895311
			 0.018930  0.398200  0.917103
			 0.059541  0.381334  0.922518
			 0.499105  0.500165  0.707622
			 0.584575  0.572000  0.575402
			 0.192095  0.510076  0.838405
			 0.441847  0.464398  0.767532
			 0.723889  0.412740  0.552839
			 0.838706  0.279860  0.467174
			-0.766005 -0.440246  0.468423
			-0.509306 -0.094054  0.855430
			-0.385976  0.112269  0.915652
			-0.266099  0.275584  0.923713
			-0.131539  0.281916  0.950379
			 0.375557 -0.321323 -0.869315
			 0.198813 -0.095452 -0.975378
			-0.124153  0.502260  0.855758
			 0.403631  0.751158  0.522344
			 0.665984 -0.364992 -0.650573
			 0.773071  0.395539 -0.495893
			 0.857350 -0.244916 -0.452734
			 0.697681 -0.403231 -0.592153
			 0.453437 -0.720306 -0.524933
			 0.153350 -0.608830 -0.778338
			 0.271605 -0.056927 -0.960724
			 0.078153 -0.348585 -0.934013
			 0.193274 -0.251517 -0.948359
			 0.824181 -0.249547 -0.508382
			 0.716696 -0.337085 -0.610509
			 0.660028 -0.529206 -0.533202
			-0.304489 -0.350960  0.885502
			 0.083747 -0.078964  0.993354
			-0.952390  0.304775 -0.008061
			-0.959605  0.194175  0.203601
			-0.808971  0.562280 -0.171489
			-0.207199  0.684678  0.698774
			-0.522783 -0.176442  0.834006
			-0.253256  0.009397  0.967354
			-0.242337  0.375327  0.894652
			-0.220752  0.169329  0.960519
			 0.261691 -0.462049  0.847366
			-0.080705  0.193088  0.977857
			-0.119248  0.232525  0.965252
			-0.539685 -0.412313  0.733988
			-0.725178 -0.297869  0.620799
			-0.807766  0.066047  0.585792
			-0.855487  0.163148  0.491453
			-0.799619  0.420739  0.428472
			-0.463986  0.496834  0.733398
			-0.610154  0.258545  0.748911
			-0.401917 -0.296252 -0.866428
			-0.553536 -0.256595 -0.792311
			-0.563040 -0.127038 -0.816607
			-0.286369 -0.331194 -0.899057
			-0.512543  0.038621 -0.857793
			-0.015250 -0.811630 -0.583973
			 0.085252 -0.982635 -0.164804
			-0.659257 -0.425618  0.619863
			-0.296200 -0.854248  0.427230
			-0.868238  0.134683 -0.477517
			-0.769920 -0.038337 -0.636988
			-0.743357  0.366989 -0.559231
			-0.804897 -0.008566 -0.593352
			-0.688874 -0.312387 -0.654116
			-0.584186 -0.288619 -0.758568
			-0.225659  0.248443 -0.941995
			 0.399126 -0.631775 -0.664499
			 0.809927 -0.235948 -0.536979
			-0.733832 -0.620225 -0.277148
			 0.200701 -0.602929 -0.772137
			 0.256102 -0.671853 -0.695000
			-0.189166 -0.567742 -0.801177
			-0.429359 -0.624779 -0.652152
			 0.356472  0.853290  0.380558
			 0.502709 -0.217152 -0.836737
			 0.625893  0.566326 -0.536220
			-0.405594 -0.433605 -0.804662
			 0.264668 -0.614211 -0.743435
			 0.758434 -0.261445 -0.597013
			 0.700390 -0.361314 -0.615554
			 0.989233  0.116019  0.089209
			-0.185734  0.728317  0.659589
			-0.368135  0.562457  0.740350
			-0.769538 -0.269487 -0.578955
			-0.946679 -0.133709  0.293122
			-0.523463  0.143530  0.839872
			-0.360994  0.332842  0.871148
			-0.975789  0.182482 -0.120568
			-0.505598  0.627632  0.591987
			-0.952728  0.300881  0.042198
			-0.222083  0.300062  0.927708
			-0.253111  0.350944  0.901539
			 0.009382 -0.261839  0.965066
			 0.443446  0.227483  0.866953
			 0.482170  0.374254  0.792115
			 0.647143  0.274475  0.711245
			 0.580367  0.282837  0.763660
			 0.780582  0.109083  0.615461
			 0.667117  0.318898  0.673246
			 0.769938 -0.595592  0.229053
			 0.976047 -0.080956  0.201938
			 0.950952  0.102903  0.291720
			 0.524213  0.375656  0.764254
			 0.970220 -0.171367 -0.171189
			-0.785774 -0.544197 -0.293953
			-0.311810  0.295918  0.902888
			-0.041908 -0.285965 -0.957323
			-0.428690  0.460935  0.777023
			 0.191523  0.963235  0.188406
			-0.111949  0.672771  0.731332
			 0.454748 -0.470557 -0.756161
			 0.509867 -0.496493 -0.702517
			 0.580672  0.067170 -0.811362
			 0.773429 -0.188753 -0.605128
			 0.602857 -0.260204 -0.754227
			 0.144434 -0.948427 -0.282179
			 0.728139 -0.177657 -0.662006
			 0.625385 -0.107020 -0.772943
			-0.097014 -0.957796  0.270584
			 0.205028 -0.939976 -0.272779
			-0.186016 -0.915529 -0.356659
			 0.680021 -0.039015 -0.732154
			-0.251070 -0.783119 -0.568936
			-0.570372 -0.550349 -0.609748
			-0.328343 -0.195892 -0.924022
			-0.634039  0.141343 -0.760274
			-0.702126  0.106370 -0.704063
			 0.577287 -0.290892 -0.762969
			 0.127156 -0.465871  0.875669
			-0.273005 -0.799849  0.534518
			 0.000723 -0.885646  0.464361
			-0.506968  0.701348  0.501093
			-0.845171  0.459696 -0.272700
			-0.827380  0.139124 -0.544139
			-0.347624 -0.445659  0.824952
			-0.858267  0.398531  0.323344
			-0.933236 -0.073095  0.351750
			-0.878223 -0.030067  0.477305
			-0.756619 -0.095011  0.646917
			-0.363638 -0.435629  0.823405
			-0.311264 -0.852532  0.419885
			-0.568937 -0.564170  0.598350
			-0.998725  0.008337  0.049785
			-0.729253 -0.663610  0.166768
			-0.867704  0.058806  0.493590
			-0.952080  0.255318  0.168394
			-0.709670  0.209547  0.672651
			-0.626607  0.217979  0.748231
			-0.491052 -0.404807 -0.771362
			-0.497503 -0.474058 -0.726471
			-0.657205 -0.266124 -0.705167
			-0.531112 -0.012675 -0.847207
			-0.650166 -0.198190 -0.733488
			 0.179191 -0.681984 -0.709076
			-0.189735 -0.831994 -0.521331
			-0.472068 -0.199148 -0.858773
			 0.165489 -0.911990 -0.375351
			-0.537206  0.111767 -0.836013
			 0.172548 -0.981950  0.077470
			 0.004552 -0.887517  0.460753
			-0.781465 -0.220506 -0.583686
			-0.924959 -0.185925 -0.331487
			-0.864389 -0.350079 -0.360939
			-0.673546 -0.628077 -0.389686
			 0.200106 -0.629517 -0.750777
			 0.242194 -0.438351 -0.865558
			 0.367270 -0.616192 -0.696721
			 0.377253 -0.517527 -0.768014
			 0.328624 -0.635860 -0.698347
			 0.292012 -0.660516 -0.691699
			 0.209087 -0.691412 -0.691543
			-0.696890 -0.479306 -0.533489
			 0.466395  0.865654  0.181985
			 0.175061  0.917841  0.356259
			 0.493267 -0.124471 -0.860927
			 0.652580  0.704454 -0.279077
			-0.484916 -0.747591 -0.453834
			-0.662883 -0.487830 -0.567986
			-0.613390 -0.330442 -0.717329
			-0.560621 -0.473703 -0.679198
			 0.635142 -0.596020 -0.491278
			 0.342494 -0.862427 -0.372716
			-0.389184  0.861687  0.325624
			-0.725920 -0.214318 -0.653536
			-0.698672  0.621117  0.355066
			-0.798426  0.442494  0.408307
			-0.526398  0.784447  0.327945
			 0.006357  0.027928  0.999590
			 0.319811 -0.859660  0.398380
			-0.199996  0.035790  0.979143
			-0.036548  0.095967  0.994713
			 0.721079  0.326538  0.611079
			 0.797392  0.320818  0.511119
			 0.486852  0.284844  0.825735
			 0.660993  0.045782  0.748994
			 0.750223  0.324189  0.576253
			 0.695973  0.110226  0.709558
			 0.606533  0.148761  0.781017
			 0.962192 -0.254370  0.097378
			 0.965740  0.181287  0.185693
			 0.710918  0.487003  0.507370
			 0.154239 -0.964726 -0.213340
			 0.298499 -0.856363 -0.421356
			 0.823640 -0.481625 -0.299424
			 0.686308  0.403958  0.604813
			 0.593777  0.321153  0.737760
			-0.648139 -0.186833  0.738247
			-0.543914  0.040747  0.838151
			-0.246821  0.966414  0.071580
			 0.389564  0.218975 -0.894589
			-0.484210  0.717991  0.500030
			 0.301292 -0.753799 -0.583960
			 0.446033 -0.442273 -0.778106
			 0.471126 -0.232846 -0.850778
			 0.587174 -0.011758 -0.809376
			 0.281332 -0.954030 -0.103340
			-0.582843 -0.612341  0.534165
			-0.329857 -0.913092  0.239704
			 0.451909 -0.094660 -0.887027
			 0.450519 -0.264890 -0.852564
			-0.540125 -0.696399  0.472540
			-0.686831 -0.662018  0.299993
			-0.676806 -0.689363 -0.258290
			-0.654344 -0.736516 -0.171399
			-0.784301 -0.614510  0.085145
			-0.950473 -0.310802  0.001665
			-0.838463 -0.230610 -0.493760
			-0.305557 -0.944121  0.123570
			-0.917688  0.031415 -0.396058
			-0.858135 -0.181590 -0.480238
			-0.933143 -0.327751 -0.147729
			-0.908789 -0.398373 -0.124101
			-0.940999 -0.250061  0.228016
			-0.776210 -0.524939  0.349194
			-0.617288 -0.784529 -0.058905
			-0.867058 -0.483677  0.119446
			-0.419376 -0.219406 -0.880900
			-0.563195 -0.039645 -0.825372
			-0.520542 -0.330974 -0.787078
			-0.126678 -0.185280 -0.974487
			-0.665225  0.122724 -0.736488
			-0.539469  0.312151 -0.782007
			-0.687435 -0.254023 -0.680372
			-0.641344  0.135310 -0.755228
			-0.444358 -0.172089 -0.879165
			-0.523717 -0.209880 -0.825634
			-0.430707 -0.036268 -0.901763
			-0.689349 -0.200818 -0.696039
			-0.767126 -0.202895 -0.608566
			-0.565772 -0.186311 -0.803237
			-0.525316 -0.218725 -0.822315
			-0.260585 -0.945163 -0.196883
			 0.238121 -0.967518  0.084890
			-0.500423  0.094982 -0.860555
			-0.543891 -0.338387 -0.767904
			-0.417335  0.086598 -0.904617
			-0.601334 -0.714549 -0.357516
			-0.308222  0.097595 -0.946295
			-0.739372 -0.564126 -0.367546
			 0.129752 -0.538826 -0.832365
			 0.110888 -0.704918 -0.700567
			 0.392870 -0.317945 -0.862881
			 0.344417 -0.651713 -0.675757
			 0.447286 -0.630615 -0.634240
			 0.299257 -0.651316 -0.697304
			 0.498172 -0.698486 -0.513753
			 0.594742 -0.466395 -0.654796
			 0.406819 -0.651272 -0.640580
			 0.234351 -0.706184 -0.668119
			 0.343095 -0.692865 -0.634211
			 0.477254  0.866619  0.145604
			 0.252539  0.961076  0.112058
			 0.845699  0.289410 -0.448370
			-0.363083 -0.891283 -0.271634
			-0.738568 -0.606622 -0.294155
			-0.263862 -0.332743 -0.905350
			-0.005285 -0.464295 -0.885665
			-0.211725 -0.783573 -0.584111
			-0.276000  0.805763  0.523994
			-0.535079  0.656368  0.531857
			-0.143026 -0.312577 -0.939063
			-0.920477  0.319135  0.225554
			-0.570343  0.274354  0.774234
			 0.114474  0.304136  0.945726
			-0.267760  0.411027  0.871414
			-0.316219  0.258155  0.912886
			 0.186221 -0.227939  0.955702
			 0.194605  0.144130  0.970235
			 0.154679 -0.865992  0.475534
			-0.461400 -0.000365  0.887192
			-0.375229  0.103559  0.921129
			 0.271146  0.211416  0.939033
			-0.390723  0.055794  0.918816
			 0.553550  0.237167  0.798333
			 0.611658  0.174079  0.771732
			 0.618315  0.148845  0.771707
			 0.767890  0.328212  0.550111
			 0.601090 -0.000292  0.799181
			 0.749653 -0.040696  0.660579
			 0.653072  0.223925  0.723432
			 0.836486  0.482166  0.260399
			 0.858020  0.417320  0.299409
			 0.661597  0.258913  0.703743
			 0.577823 -0.360691 -0.732136
			 0.893674  0.440418 -0.085903
			 0.806770  0.135039 -0.575228
			 0.840532  0.535757 -0.080436
			 0.709172  0.196730  0.677032
			 0.814844  0.483858  0.319233
			-0.227020 -0.786925  0.573769
			-0.300411 -0.148230  0.942222
			-0.605412  0.459934  0.649567
			 0.296047 -0.264526 -0.917814
			-0.548692  0.828129 -0.114624
			 0.199125 -0.910623 -0.362097
			-0.724562  0.587617  0.360162
			 0.329758 -0.769738 -0.546592
			 0.394244 -0.376044 -0.838548
			 0.381982 -0.858953  0.341013
			 0.531908 -0.315544 -0.785816
			 0.420495 -0.131444 -0.897723
			 0.504743 -0.231806 -0.831565
			 0.406210 -0.093806 -0.908952
			 0.433459 -0.289040 -0.853563
			-0.847685 -0.529167 -0.037577
			 0.096364  0.177695 -0.979356
			 0.115288  0.438075 -0.891515
			-0.123979  0.399581 -0.908275
			-0.223727  0.579158 -0.783914
			 0.154563  0.067991 -0.985641
			 0.079392  0.233764 -0.969047
			 0.496982  0.357749 -0.790585
			-0.075367  0.788624 -0.610240
			-0.174265  0.904233 -0.389864
			-0.725475 -0.167581 -0.667534
			-0.763648 -0.209590 -0.610667
			-0.261877  0.909812 -0.321967
			-0.707950  0.049856 -0.704500
			-0.799961  0.363068 -0.477749
			-0.794021  0.476817 -0.377063
			-0.823370  0.325588 -0.464815
			-0.410479  0.009837 -0.911817
			-0.579916 -0.224540 -0.783122
			-0.579335 -0.190991 -0.792397
			-0.684534  0.517649 -0.513276
			-0.702869  0.290004 -0.649517
			-0.251158 -0.825471  0.505488
			-0.784092 -0.289887 -0.548785
			-0.869914 -0.124382 -0.477262
			-0.611200 -0.037244 -0.790599
			-0.615297 -0.488427  0.618748
			 0.114808 -0.772844 -0.624125
			 0.298485 -0.648862 -0.699918
			 0.228138 -0.746082 -0.625552
			 0.734071 -0.448051 -0.510284
			 0.584596 -0.631831 -0.508957
			 0.381236 -0.631742 -0.674953
			 0.463035 -0.863495 -0.199939
			 0.024195 -0.995231  0.094494
			 0.883376 -0.380611 -0.273463
			 0.740560 -0.397510 -0.541809
			 0.644271 -0.646501 -0.408596
			 0.324742 -0.741340 -0.587331
			-0.109002 -0.954865  0.276318
			 0.377636 -0.848594  0.370513
			 0.763045 -0.405826 -0.503059
			 0.693251 -0.324759 -0.643377
			 0.493406 -0.692492 -0.526312
			 0.358816 -0.709920 -0.606024
			 0.919177  0.369911 -0.135203
			 0.216941  0.837462  0.501592
			 0.636388  0.762088  0.119303
			 0.623802  0.194613 -0.756965
			 0.451554 -0.093293 -0.887353
			 0.009092  0.306103  0.951955
			-0.643688  0.498995 -0.580233
			-0.894263  0.329234  0.303148
			-0.886378  0.420205  0.194321
			 0.259740 -0.393731  0.881766
			 0.551397 -0.465307  0.692423
			-0.222364 -0.604307  0.765093
			-0.882022 -0.266127  0.388861
			 0.095299  0.611161  0.785748
			 0.017208  0.554922  0.831724
			-0.100906  0.525088  0.845045
			 0.108200  0.239677  0.964805
			-0.160710  0.037477  0.986290
			 0.044227  0.503466  0.862883
			 0.002907  0.430898  0.902396
			 0.186348  0.036698  0.981798
			 0.051399  0.589859  0.805869
			-0.251442  0.147502  0.956567
			-0.318919  0.082969  0.944144
			 0.043736 -0.019787  0.998847
			 0.710224  0.356010  0.607322
			 0.156084  0.029463  0.987304
			 0.735395  0.391846  0.552857
			 0.524758  0.642160  0.558802
			 0.789891  0.519189  0.326368
			 0.672374  0.276944  0.686451
			 0.453607  0.260914  0.852153
			 0.400237  0.107151  0.910126
			 0.181913  0.511165  0.840010
			 0.325767  0.572670  0.752280
			 0.341579  0.730109  0.591832
			 0.675700  0.420825  0.605257
			 0.493017  0.629308  0.600754
			 0.252150  0.266804 -0.930181
			 0.574582  0.479276 -0.663439
			 0.818050  0.405145  0.408231
			 0.691642  0.631413 -0.350640
			 0.011110 -0.662750  0.748759
			-0.210201 -0.218316  0.952971
			 0.473893 -0.565515 -0.674996
			 0.119731  0.296248 -0.947577
			-0.698036  0.652382 -0.295201
			-0.789370  0.459051  0.407635
			-0.382270 -0.079714  0.920606
			 0.552877 -0.445844 -0.703953
			 0.651327 -0.682890  0.330809
			 0.344053  0.057356 -0.937197
			 0.596822 -0.168083 -0.784571
			 0.571588 -0.437394 -0.694243
			 0.694064 -0.249664 -0.675236
			 0.440479 -0.017299 -0.897596
			 0.574202 -0.268158 -0.773552
			 0.660938 -0.472907 -0.582684
			 0.572834 -0.353043 -0.739745
			 0.317935  0.798532 -0.511141
			 0.365163  0.927906 -0.075145
			 0.404534  0.872229  0.274896
			-0.458877  0.844824 -0.275144
			 0.127212  0.953174  0.274367
			 0.192837  0.969354  0.152208
			-0.609021  0.700069 -0.372823
			-0.552658  0.713231  0.431127
			-0.582736  0.686251  0.435290
			-0.515100  0.742868  0.427574
			-0.504750  0.784524  0.360208
			-0.620285  0.784034 -0.023179
			-0.602713  0.566367  0.562108
			-0.807725  0.339378  0.482081
			-0.872014  0.148150 -0.466522
			-0.859995  0.061254 -0.506613
			-0.781039 -0.200351 -0.591470
			-0.562623  0.825386 -0.046827
			-0.206743  0.927141  0.312516
			-0.166243  0.965942  0.198290
			-0.106657  0.947745  0.300673
			 0.219986  0.034186  0.974904
			-0.883770 -0.262732  0.387198
			-0.766083 -0.301812  0.567474
			-0.892725 -0.436227  0.112908
			 0.215868 -0.028423  0.976009
			 0.165629  0.225550  0.960049
			 0.223247 -0.827194 -0.515665
			 0.245454 -0.787241 -0.565689
			 0.579759 -0.741196 -0.338392
			 0.763197 -0.629849 -0.144295
			 0.687245 -0.671609 -0.276830
			 0.758499 -0.633247 -0.153871
			 0.367414 -0.855903  0.363919
			 0.673739 -0.672294  0.306753
			 0.799193 -0.193575 -0.569051
			 0.865434 -0.162614 -0.473899
			-0.658455 -0.412975  0.629196
			 0.307642 -0.804976 -0.507317
			 0.647763 -0.693246 -0.315932
			 0.687102 -0.662162 -0.299053
			 0.736976  0.665952  0.115652
			 0.986797 -0.154068 -0.049942
			 0.594829  0.610618  0.522804
			 0.870089 -0.393906  0.296282
			 0.024694  0.270025 -0.962537
			 0.203988  0.197610  0.958822
			 0.370636 -0.056633  0.927050
			 0.090775  0.034594  0.995270
			 0.181192  0.205928  0.961646
			 0.062625  0.215314  0.974535
			-0.008668  0.394980  0.918649
			 0.228008  0.397383  0.888875
			 0.566493  0.404475  0.717974
			 0.106218  0.022651  0.994085
			 0.273585  0.228902  0.934214
			 0.081853  0.003401  0.996639
			 0.065360  0.018808  0.997684
			 0.689759  0.712369  0.129472
			 0.536517  0.104763  0.837361
			 0.225969  0.030320  0.973663
			 0.520759  0.058553  0.851693
			 0.266552  0.329536  0.905735
			 0.231638  0.475029  0.848935
			 0.240961  0.288131  0.926779
			 0.495374  0.051386  0.867159
			 0.513085 -0.003079  0.858333
			 0.310914  0.215470  0.925692
			-0.217112  0.661778  0.717574
			 0.010762  0.444014  0.895955
			-0.267816  0.831601  0.486533
			-0.333473  0.793526  0.509031
			 0.042245  0.797726  0.601539
			 0.630515 -0.454565 -0.629143
			 0.543411  0.014743 -0.839338
			-0.304583  0.653218  0.693206
			-0.312908  0.660570  0.682448
			-0.305416  0.612074  0.729443
			-0.363727  0.585821  0.724235
			-0.313824  0.726731  0.611045
			-0.303445  0.441410  0.844439
			-0.473418  0.382533  0.793438
			-0.911340  0.194786  0.362653
			-0.482501  0.352457  0.801853
			-0.965279  0.080815  0.248404
			-0.925294 -0.255614 -0.280165
			-0.854073 -0.442195 -0.273902
			 0.529983  0.385762  0.755185
			 0.061006 -0.398802  0.915006
			 0.235858 -0.626665  0.742739
			-0.737343 -0.455871  0.498505
			 0.520246  0.479255  0.706865
			 0.701275  0.170479  0.692207
			 0.601493 -0.292598  0.743366
			 0.519888 -0.790701 -0.323277
			 0.741129 -0.652358 -0.158609
			 0.764690 -0.620126 -0.175193
			 0.225105  0.037587  0.973609
			 0.151960  0.015889  0.988259
			 0.291172  0.067967  0.954253
			-0.009901  0.074695  0.997157
			 0.149805  0.008042  0.988683
			 0.137356 -0.158632  0.977737
			 0.272941  0.202281  0.940524
			 0.549778  0.447848  0.705107
			-0.146001  0.056036  0.987696
			-0.061895  0.084913  0.994464
			 0.499070  0.049585  0.865142
			 0.012160  0.522607  0.852487
			 0.325800  0.307469  0.894046
			 0.054165  0.325908  0.943849
			 0.139432  0.245616  0.959287
			 0.502925 -0.007871  0.864294
			-0.247899  0.558425  0.791649
			-0.564204  0.318079  0.761905
			-0.772809  0.218595  0.595804
			-0.021554  0.085770  0.996082
			-0.339119  0.287946  0.895592
			-0.639210  0.130324  0.757909
			 0.537010 -0.373054  0.756605
			 0.529903 -0.586001  0.613030
			 0.392340 -0.556026  0.732737
			 0.155066 -0.522196  0.838610
			 0.502491 -0.612394  0.610309
			 0.406838 -0.559984  0.721735
			-0.013663 -0.234345  0.972058
			 0.480100  0.064336  0.874852
			 0.439556 -0.384227  0.811887
			 0.272123  0.174040  0.946393
			 0.286976 -0.049876  0.956638
			 0.265543 -0.049320  0.962837
			 0.456513 -0.253720  0.852773
			 0.031093  0.482195  0.875512
			 0.495095 -0.279353  0.822705
			 0.474143 -0.477228  0.739893
			-0.544358  0.306277  0.780941
			-0.024183 -0.121236  0.992329
			-0.346250  0.209313  0.914494
			-0.072954 -0.087267  0.993510
			 0.407332 -0.429759  0.805846
			 0.384342 -0.293982  0.875132
		</DataArray>
	</PointData>
	<Points>
		<DataArray type="Float32" NumberOfComponents="3" format="ascii">
			-0.052477 -0.067971 -0.058714
			-0.046590 -0.061609 -0.066478
			-0.049505 -0.069440 -0.055771
			-0.051755 -0.071627 -0.054981
			-0.054004 -0.062971 -0.069834
			-0.057176 -0.072454 -0.059522
			-0.057629 -0.066504 -0.068123
			-0.043123 -0.069349 -0.054663
			-0.047324 -0.059197 -0.075754
			-0.038579 -0.061533 -0.066255
			-0.054277 -0.081493 -0.053346
			-0.047988 -0.082725 -0.049272
			-0.057934 -0.065706 -0.071444
			-0.052878 -0.061195 -0.077014
			-0.060650 -0.075349 -0.062984
			-0.060595 -0.068895 -0.072427
			-0.037272 -0.065752 -0.059863
			-0.037305 -0.072250 -0.053693
			-0.040828 -0.078765 -0.049620
			-0.039859 -0.060166 -0.090665
			-0.049558 -0.062342 -0.092364
			-0.030909 -0.066902 -0.063146
			-0.027186 -0.064705 -0.077157