<?xml version="1.0"?>
<VTKFile type="PolyData" version="0.1" byte_order="LittleEndian" compressor="vtkZLibDataCompressor">
	<PolyData>
		<Piece NumberOfPoints="845" NumberOfVerts="0" NumberOfLines="0" NumberOfStrips="0" NumberOfPolys="1690">
		<PointData Normals="Normals">
		<DataArray type="Float32" Name="Normals" NumberOfComponents="3" format="ascii">
			 0.038092 -0.727438  0.685116
			-0.044272 -0.894784  0.444298
			 0.282029 -0.793718  0.538954
			 0.302166 -0.525133  0.795569
			-0.102903 -0.635986  0.764809
			 0.264921 -0.925148  0.271877
			-0.412232 -0.867519  0.278346
			-0.060344 -0.995375  0.074751
			 0.591402 -0.570681  0.569708
			 0.554522 -0.760015  0.338943
			 0.185138 -0.244759  0.951744
			 0.702515 -0.099686  0.704653
			-0.424443 -0.671950  0.606904
			-0.461942 -0.451806  0.763205
			-0.185837 -0.293145  0.937833
			 0.522122 -0.847461  0.095903
			 0.296108 -0.954438 -0.037004
			-0.668327 -0.567509  0.480907
			-0.696458 -0.671831  0.252167
			-0.532618 -0.817234  0.220105
			-0.181787 -0.971131  0.154462
			-0.312312 -0.919414  0.239039
			 0.095631 -0.994328  0.046547
			 0.874370 -0.305384  0.377117
			 0.772859 -0.625234  0.108492
			 0.311246 -0.093160  0.945752
			-0.279524 -0.068996  0.957656
			 0.859373  0.350462  0.372362
			-0.606790 -0.073063  0.791497
			-0.740126 -0.335416  0.582846
			 0.298143 -0.918378  0.260178
			 0.277840 -0.960378 -0.021905
			-0.619907 -0.567478  0.541926
			-0.495964 -0.757532  0.424459
			 0.109688 -0.818961  0.563269
			-0.069625 -0.920371  0.384799
			 0.139950 -0.791143  0.595405
			 0.209884 -0.787412  0.579596
			 0.184461 -0.894129  0.408054
			 0.984296 -0.044934  0.170711
			 0.623438 -0.696994  0.354294
			-0.512438  0.028996  0.858235
			-0.466232 -0.672851  0.574368
			-0.503448 -0.302652  0.809285
			 0.865868 -0.024342  0.499680
			 0.044140 -0.907335  0.418086
			 0.612905 -0.762219  0.208255
			 0.829218  0.157092  0.536396
			 0.929205  0.107083  0.353710
			 0.732831 -0.023612  0.680001
			-0.439759 -0.329348  0.835549
			-0.567890 -0.370029  0.735241
			-0.574288 -0.313027  0.756444
			-0.421555 -0.328949  0.845035
			-0.614402 -0.397540  0.681522
			 0.151221 -0.840278  0.520639
			-0.428726 -0.394694  0.812657
			-0.494024 -0.523818  0.693942
			 0.597158 -0.574558  0.559719
			 0.012544 -0.548484  0.836067
			 0.447819 -0.653815  0.609905
			 0.691372 -0.673493  0.261558
			 0.240982 -0.719065  0.651823
			 0.292263 -0.533739  0.793539
			 0.148358 -0.259917  0.954166
			 0.244985 -0.583238  0.774477
			 0.102188 -0.407838  0.907318
			 0.974534 -0.095349  0.202958
			-0.021142 -0.723198  0.690317
			-0.566780 -0.372459  0.734870
			-0.373563 -0.771187  0.515482
			-0.230003 -0.969291  0.087022
			 0.324793 -0.929571  0.174380
			 0.131137 -0.924500  0.357916
			-0.020583 -0.990931 -0.132784
			 0.430695 -0.893110 -0.129831
			 0.270268 -0.961415  0.051340
			 0.121211 -0.990227  0.068985
			 0.601725 -0.211017  0.770324
			 0.349801 -0.440363  0.826874
			 0.692708 -0.387260  0.608428
			 0.138057 -0.617480  0.774377
			 0.069869 -0.622531  0.779470
			 0.354515 -0.477710  0.803811
			 0.326637 -0.418324  0.847534
			-0.296830 -0.445058  0.844876
			-0.302148 -0.800192  0.518073
			-0.243413 -0.718177  0.651899
			-0.192203 -0.064591  0.979227
			-0.335231 -0.162240  0.928061
			-0.725699 -0.133434  0.674949
			-0.619040  0.114188  0.777014
			-0.667201 -0.442829  0.598954
			-0.672267 -0.132452  0.728364
			-0.707417 -0.289472  0.644800
			 0.863118 -0.165310  0.477179
			 0.972590 -0.201165 -0.116622
			 0.984087  0.135119  0.115397
			 0.348208 -0.756075  0.554168
			 0.462809 -0.882741 -0.081098
			 0.699894 -0.594875 -0.395313
			 0.352444 -0.894101  0.276346
			 0.239238 -0.288780  0.927023
			 0.265711 -0.248212  0.931552
			-0.022906  0.195912  0.980354
			-0.140866  0.275372  0.950961
			 0.099051  0.057907  0.993396
			 0.111186 -0.474673  0.873111
			 0.051935 -0.307258  0.950208
			 0.164203 -0.345846  0.923812
			-0.589277 -0.556294  0.585909
			-0.693445 -0.465189  0.550212
			-0.552524 -0.558421  0.618776
			-0.049125 -0.994892  0.088183
			 0.204359 -0.739511 -0.641375
			 0.246070 -0.513239 -0.822213
			-0.090669 -0.992828 -0.077916
			 0.007100 -0.981034  0.193707
			-0.079529 -0.877744  0.472483
			-0.421113 -0.812867  0.402382
			 0.217089 -0.156748 -0.963484
			 0.684780 -0.708234 -0.171701
			 0.402684 -0.292110 -0.867478
			 0.538040 -0.812487  0.224451
			 0.408848 -0.834476  0.369450
			-0.306741 -0.668817  0.677195
			-0.527800 -0.606029  0.595110
			 0.590963 -0.646146  0.482968
			 0.126278 -0.949303  0.287883
			 0.902244 -0.228747  0.365556
			-0.433456  0.305445  0.847832
			-0.323321  0.348553  0.879758
			-0.515283  0.222797  0.827554
			-0.764239 -0.330235  0.553971
			-0.731508 -0.265398  0.628060
			-0.786414 -0.211066  0.580520
			-0.663251  0.024711  0.747989
			 0.972001  0.234246 -0.018503
			 0.966418  0.165713 -0.196405
			 0.900642 -0.011612 -0.434408
			 0.879095  0.461597 -0.118829
			 0.869870  0.444723 -0.213417
			 0.433412 -0.556546  0.708809
			 0.243992 -0.791594  0.560220
			 0.319533 -0.947431 -0.016554
			 0.733931 -0.107584 -0.670650
			 0.609208 -0.349541 -0.711819
			 0.007406 -0.148869  0.988829
			-0.021970  0.042043  0.998874
			-0.204188  0.132132  0.969973
			-0.387729  0.250167  0.887177
			-0.029102 -0.171434  0.984766
			 0.118192 -0.455045  0.882590
			-0.739276 -0.450634  0.500400
			-0.771915 -0.415608  0.481059
			-0.797400 -0.095790  0.595800
			-0.869286 -0.080011  0.487792
			-0.718060 -0.438776  0.540246
			-0.588475 -0.491507  0.641964
			-0.006985 -0.838719 -0.544520
			 0.054552 -0.074552 -0.995724
			-0.007190  0.208861 -0.977919
			-0.634377 -0.661502  0.399975
			-0.395946 -0.621691  0.675816
			 0.470042 -0.445013  0.762249
			 0.693081 -0.610828  0.382790
			-0.041107  0.266518 -0.962953
			-0.065183  0.295714 -0.953050
			 0.583458 -0.141205 -0.799774
			 0.898810 -0.434150 -0.060442
			 0.766541 -0.556567  0.320387
			 0.743243 -0.636701  0.205433
			-0.082231 -0.995816 -0.039866
			 0.135491 -0.990776  0.002356
			 0.933226 -0.356810  0.042149
			 0.975104  0.191670 -0.111513
			-0.356627  0.351226  0.865712
			-0.501167  0.200684  0.841759
			-0.740879  0.140095  0.656866
			 0.344045  0.588100 -0.731964
			 0.473740  0.568008 -0.673006
			 0.925612  0.272733 -0.262412
			 0.852483  0.109924 -0.511068
			 0.721516  0.607150 -0.332842
			 0.786904  0.588395 -0.185938
			 0.595643  0.669968 -0.443117
			 0.569370  0.577502 -0.585072
			 0.803246  0.417731 -0.424614
			 0.188275 -0.870375  0.454973
			 0.538057 -0.834595 -0.118095
			 0.523940 -0.849042  0.067934
			 0.689369  0.224820 -0.688641
			 0.508653  0.275377 -0.815745
			 0.711093 -0.013781 -0.702963
			 0.484694  0.295981 -0.823084
			 0.631380 -0.594202 -0.498280
			-0.050735 -0.359703  0.931686
			-0.108983 -0.302638  0.946854
			-0.041876 -0.282847  0.958250
			-0.122227 -0.255123  0.959152
			-0.441207  0.039064  0.896555
			-0.459995  0.143552  0.876240
			-0.062344 -0.464428  0.883414
			 0.320048 -0.785497  0.529682
			 0.017182 -0.464428  0.885444
			-0.737991 -0.267705  0.619438
			-0.667316 -0.004765  0.744760
			-0.865395 -0.007665  0.501031
			-0.946407  0.265361  0.184112
			-0.727635 -0.220428  0.649583
			-0.777093  0.025303  0.628876
			-0.571668 -0.370089  0.732277
			-0.582780 -0.272544  0.765563
			 0.037983 -0.161834  0.986087
			-0.401118 -0.650297 -0.645149
			-0.163249 -0.953738 -0.252457
			-0.417233 -0.228625 -0.879572
			-0.351321  0.007378 -0.936226
			-0.281398  0.092454 -0.955127
			-0.077033  0.283946 -0.955741
			-0.193346  0.253675 -0.947769
			 0.595584 -0.223063  0.771701
			 0.660483 -0.548247  0.513018
			-0.484939  0.076338 -0.871210
			-0.130024  0.198025 -0.971535
			-0.612270  0.086045 -0.785953
			-0.664121  0.306473 -0.681922
			-0.091358  0.354082 -0.930742
			-0.342234  0.683695 -0.644544
			-0.595231  0.459992 -0.658868
			-0.423891  0.247114 -0.871350
			 0.224385  0.211513 -0.951269
			-0.047119  0.225942 -0.973001
			 0.680629  0.251624 -0.688063
			 0.989622 -0.075966  0.121977
			 0.785825 -0.479639  0.390417
			 0.653371 -0.464983  0.597409
			 0.757349 -0.414335  0.504727
			 0.673465 -0.556914  0.486098
			 0.510278 -0.518258  0.686312
			 0.631223 -0.755848  0.173930
			-0.668594 -0.709833 -0.221629
			-0.285515 -0.825785  0.486375
			 0.923660 -0.347411  0.161733
			 0.908507  0.185665  0.374357
			 0.624367  0.587141 -0.515200
			-0.477731  0.060315  0.876433
			-0.502898 -0.037198  0.863545
			-0.448164  0.095092  0.888879
			-0.088907  0.645155 -0.758861
			-0.420492  0.503027 -0.755083
			-0.546955  0.639135 -0.540691
			 0.172454  0.419183 -0.891373
			-0.176234  0.409096 -0.895311
			 0.301913  0.453791 -0.838405
			 0.108021  0.383736 -0.917103
			 0.143796  0.358167 -0.922518
			 0.598826  0.375071 -0.707622
			 0.698265  0.425839 -0.575402
			 0.793360 -0.591280 -0.144802
			 0.534989  0.353101 -0.767532
			 0.880165  0.084019 -0.467174
			 0.798182  0.239322 -0.552839
			-0.006241 -0.423369  0.905936
			-0.036091 -0.373760  0.926823
			-0.042327 -0.575510  0.816699
			-0.202799 -0.269476  0.941411
			-0.308414  0.030952  0.950748
			-0.081047 -0.352051  0.932465
			-0.010698 -0.482888  0.875617
			 0.265261 -0.675559  0.687937
			-0.655338 -0.724298  0.214301
			-0.459757 -0.721530  0.517705
			-0.440876 -0.583686  0.681864
			-0.995735 -0.083006 -0.040271
			-0.841720  0.169177  0.512725
			-0.970861  0.216734  0.102252
			-0.811778  0.359701 -0.460034
			-0.794930  0.123716 -0.593953
			-0.559812 -0.010576  0.828552
			-0.563078 -0.234203  0.792523
			-0.653319 -0.015772  0.756918
			-0.184850  0.309954  0.932609
			 0.408452  0.044247  0.911707
			 0.281521  0.211662  0.935919
			-0.845406 -0.256649 -0.468423
			-0.517410  0.022925 -0.855430
			-0.350829  0.196217 -0.915652
			-0.064751  0.304281 -0.950379
			-0.197286  0.328380 -0.923713
			 0.293650 -0.397570  0.869315
			 0.172246 -0.137729  0.975378
			-0.375634 -0.273470 -0.885502
			-0.618603 -0.280343 -0.733988
			-0.773597 -0.127105 -0.620799
			 0.063837 -0.095779 -0.993354
			-0.772206  0.246062 -0.585792
			-0.684479  0.589831 -0.428472
			-0.796860  0.351409 -0.491453
			-0.536356  0.389173 -0.748911
			-0.340330  0.588474 -0.733398
			-0.007987  0.517315 -0.855758
			-0.047870  0.713739 -0.698774
			-0.661751  0.729847  0.171489
			-0.859421  0.511204  0.008061
			-0.891331  0.405063 -0.203601
			-0.549075 -0.054319 -0.834006
			-0.244651  0.066126 -0.967354
			-0.151696  0.420221 -0.894652
			-0.177003  0.214648 -0.960519
			 0.151045 -0.509074 -0.847366
			-0.035202  0.206294 -0.977857
			-0.063884  0.253390 -0.965252
			 0.562259  0.641109 -0.522344
			 0.842234  0.211499  0.495893
			 0.566810 -0.505451  0.650573
			 0.780282 -0.431501  0.452734
			 0.746921 -0.428552  0.508382
			 0.589092 -0.549840  0.592153
			 0.279782 -0.803846  0.524933
			 0.012463 -0.627722  0.778338
			-0.002265 -0.357231  0.934013
			 0.251839 -0.116566  0.960724
			 0.131741 -0.288548  0.948359
			 0.622499 -0.489667  0.610509
			 0.524066 -0.664116  0.533202
			 0.246778 -0.705366  0.664499
			 0.736092 -0.412094  0.536979
			-0.854545 -0.439252  0.277148
			 0.098404 -0.712244  0.695000
			 0.059927 -0.632624  0.772137
			-0.312032 -0.510638  0.801177
			-0.558899 -0.512181  0.652152
			 0.440976 -0.324671  0.836737
			 0.737248  0.411016  0.536220
			 0.539284  0.751231 -0.380558
			-0.458258 -0.198248  0.866428
			-0.597070 -0.125500  0.792311
			-0.577187  0.002875  0.816607
			-0.490718  0.152928  0.857793
			-0.353532 -0.258286  0.899057
			-0.017138  0.751431 -0.659589
			-0.232174  0.630854 -0.740350
			-0.952494  0.082675 -0.293122
			-0.810436 -0.089472  0.578955
			-0.477760  0.257605 -0.839872
			-0.276868  0.405518 -0.871148
			-0.909730  0.397310  0.120568
			-0.351453  0.725280 -0.591987
			-0.860626  0.507486 -0.042198
			-0.148892  0.342329 -0.927708
			-0.167679  0.398887 -0.901539
			-0.049760 -0.257239 -0.965066
			 0.483253  0.121899 -0.866953
			 0.554001  0.256198 -0.792115
			 0.692301  0.121865 -0.711245
			 0.629117  0.145034 -0.763660
			 0.601161 -0.509606  0.615554
			 0.989977 -0.109484 -0.089209
			 0.721755  0.160656 -0.673246
			 0.785114 -0.069305 -0.615461
			 0.616225 -0.753526 -0.229053
			 0.932820 -0.298444 -0.201938
			 0.949728 -0.113653 -0.291720
			 0.595281  0.248106 -0.764254
			 0.906804 -0.385227  0.171189
			 0.680183 -0.425354  0.597013
			 0.119718 -0.658006  0.743435
			-0.492738 -0.331253  0.804662
			-0.197436 -0.787397  0.583973
			-0.137978 -0.976628  0.164804
			-0.738103 -0.266409 -0.619863
			-0.480772 -0.765724 -0.427230
			-0.815688  0.326543  0.477517
			-0.758811  0.135840  0.636988
			-0.641750  0.524802  0.559231
			-0.741490 -0.149417  0.654116
			-0.786195  0.172715  0.593352
			-0.634139 -0.149808  0.758568
			-0.163988  0.292838  0.941995
			-0.888052 -0.353489  0.293953
			-0.237251  0.358475 -0.902888
			-0.105162 -0.269208  0.957323
			 0.019099 -0.482535 -0.875669
			-0.445935 -0.717936 -0.534518
			-0.198522 -0.863109 -0.464361
			-0.681266 -0.421727 -0.598350
			-0.859842 -0.482556 -0.166768
			-0.971252  0.232788 -0.049785
			-0.832236  0.252490 -0.493590
			-0.870244  0.462946 -0.168394
			-0.585993  0.280348  0.760274
			-0.660202  0.261587  0.704063
			-0.644343  0.363817 -0.672651
			-0.561512  0.353348 -0.748231
			-0.314015  0.545555 -0.777023
			-0.336205  0.797416 -0.501093
			-0.720101  0.638036  0.272700
			-0.774878  0.321678  0.544139
			-0.438966 -0.356038 -0.824952
			-0.746620  0.581384 -0.323344
			-0.925760  0.138710 -0.351750
			-0.862478  0.168261 -0.477305
			-0.758599  0.077627 -0.646917
			-0.452313 -0.342663 -0.823405
			-0.495064 -0.760663 -0.419885
			 0.403295  0.895465 -0.188406
			 0.042261  0.680711 -0.731332
			 0.337241 -0.560793  0.756161
			 0.580899 -0.065175  0.811362
			 0.385112 -0.598463  0.702517
			 0.711146 -0.357899  0.605128
			-0.072618 -0.956609  0.282179
			 0.528872 -0.389148  0.754227
			 0.585282 -0.244958  0.772943
			 0.669513 -0.336899  0.662006
			-0.309985 -0.911424 -0.270584
			-0.011676 -0.962006  0.272779
			-0.387197 -0.850219  0.356659
			 0.653816 -0.190987  0.732154
			-0.420799 -0.706569  0.568936
			-0.679555 -0.407938  0.609748
			-0.363994 -0.117010  0.924022
			 0.497055 -0.413297  0.762969
			 0.053367 -0.658397  0.750777
			 0.137379 -0.481598  0.865558
			 0.135944 -0.709275  0.691699
			 0.177164 -0.693487  0.698347
			 0.219244 -0.683017  0.696721
			 0.048195 -0.720726  0.691543
			 0.251166 -0.589127  0.768014
			-0.786849 -0.310256  0.533489
			 0.452625 -0.232242  0.860927
			 0.649171  0.738551 -0.181985
			 0.794322  0.539600  0.279077
			 0.377043  0.854937 -0.356259
			-0.591392 -0.349994  0.726471
			-0.569528 -0.283969  0.771362
			-0.700225 -0.111464  0.705167
			-0.520351  0.107124  0.847207
			-0.678086 -0.046854  0.733488
			 0.021185 -0.704814  0.709076
			-0.504768 -0.087852  0.858773
			-0.372030 -0.767989  0.521331
			-0.043905 -0.925842  0.375351
			-0.498295  0.229747  0.836013
			-0.185372  0.927150 -0.325624
			-0.755525 -0.045529  0.653536
			-0.678423  0.610760 -0.408307
			-0.541044  0.762365 -0.355066
			-0.336444  0.882756 -0.327945
			 0.118233 -0.909568 -0.398380
			 0.012476  0.025782 -0.999590
			-0.195213 -0.865794 -0.460753
			-0.186820  0.079862 -0.979143
			-0.014024  0.101729 -0.994713
			 0.776053  0.155961 -0.611079
			 0.849123  0.133221 -0.511119
			 0.538450  0.168026 -0.825735
			 0.803921  0.147117 -0.576253
			 0.654350 -0.104083 -0.748994
			 0.702930 -0.049159 -0.709558
			 0.624452  0.008508 -0.781017
			 0.981769 -0.040604 -0.185693
			 0.880310 -0.464297 -0.097378
			 0.802249  0.314599 -0.507370
			 0.139712 -0.917368  0.372716
			-0.066731 -0.974696  0.213340
			 0.098208 -0.901562  0.421356
			 0.694188 -0.654560  0.299424
			 0.650802  0.179351 -0.737760
			 0.759589  0.239219 -0.604813
			 0.484788 -0.723620  0.491278
			-0.640659 -0.619348  0.453834
			-0.672002 -0.183990  0.717329
			-0.755631 -0.326211  0.567986
			-0.652812 -0.335449  0.679198
			-0.052765 -0.995597 -0.077470
			-0.811039 -0.039064  0.583686
			-0.943076  0.026911  0.331487
			-0.920985 -0.146661  0.360939
			-0.797570 -0.460464  0.389686
			-0.510107 -0.851188 -0.123570
			-0.996028 -0.089026 -0.001665
			-0.868849 -0.036087  0.493760
			-0.953639 -0.276234 -0.119446
			-0.818149 -0.490547 -0.299993
			-0.902434 -0.422331 -0.085145
			-0.673556 -0.036245 -0.738247
			-0.682938 -0.557048 -0.472540
			-0.520808  0.162057 -0.838151
			-0.887101  0.237045  0.396058
			-0.876990  0.016102  0.480238
			-0.982954 -0.109439  0.147729
			-0.973132 -0.031973 -0.228016
			-0.975112 -0.183729  0.124101
			-0.874402 -0.336876 -0.349194
			-0.777948 -0.625562  0.058905
			 0.428838  0.125730  0.894589
			-0.023099  0.997167 -0.071580
			-0.310287  0.808512 -0.500030
			 0.124002 -0.802255  0.583960
			 0.335112 -0.531273  0.778106
			 0.406672 -0.332859  0.850778
			 0.059511 -0.992864  0.103340
			-0.705652 -0.465535 -0.534165
			-0.526803 -0.815488 -0.239704
			 0.569479 -0.143542  0.809376
			 0.419032 -0.193892  0.887027
			 0.379385 -0.359446  0.852564
			-0.814532 -0.519446  0.258290
			-0.803254 -0.570444  0.171399
			 0.005217 -0.554204  0.832365
			-0.050526 -0.711795  0.700567
			 0.311279 -0.398173  0.862881
			 0.249888 -0.726095  0.640580
			 0.178441 -0.752287  0.634211
			 0.069488 -0.740802  0.668119
			 0.188987 -0.712486  0.675757
			 0.293964 -0.715070  0.634240
			 0.145072 -0.701941  0.697304
			 0.328278 -0.792648  0.513753
			 0.474582 -0.588229  0.654796
			 0.889127  0.091752  0.448370
			 0.659968  0.737049 -0.145604
			 0.462261  0.879635 -0.112058
			-0.457983 -0.119444  0.880900
			-0.165110 -0.152035  0.974487
			-0.581654 -0.205394  0.787078
			-0.557679  0.088062  0.825372
			-0.455423  0.425505  0.782007
			-0.620568  0.269222  0.736488
			-0.594468  0.276113  0.755228
			-0.726958 -0.092873  0.680372
			-0.557507 -0.086690  0.825634
			-0.471680 -0.067719  0.879165
			-0.427826  0.061550  0.901763
			-0.793106 -0.025129  0.608566
			-0.716855 -0.040601  0.696039
			-0.593183 -0.054265  0.803237
			-0.561055 -0.094949  0.822315
			-0.466231  0.205118  0.860555
			-0.466522 -0.862319  0.196883
			-0.387158  0.178259  0.904617
			-0.606072 -0.207365  0.767904
			-0.746660 -0.560964  0.357516
			-0.278368  0.164428  0.946295
			 0.014374 -0.996287 -0.084890
			-0.087669  0.847198 -0.523994
			-0.373714  0.759911 -0.531857
			-0.825096  0.518018 -0.225554
			-0.209675 -0.272392  0.939063
			-0.494009  0.395622 -0.774234
			 0.222039  0.096659 -0.970235
			 0.130173 -0.263987 -0.955702
			 0.179955  0.270590 -0.945726
			-0.044091 -0.878592 -0.475534
			-0.168436  0.460725 -0.871414
			-0.250043  0.322672 -0.912886
			-0.342317  0.185313 -0.921129
			-0.449657  0.103437 -0.887192
			 0.311755  0.145003 -0.939033
			-0.368158  0.142257 -0.918816
			 0.592713  0.106567 -0.798333
			 0.635141  0.032024 -0.771732
			 0.635951  0.005939 -0.771707
			 0.923510  0.281640 -0.260399
			 0.822041  0.147062 -0.550111
			 0.929905  0.213612 -0.299409
			 0.721285 -0.208288 -0.660579
			 0.585618 -0.135500 -0.799181
			 0.686706  0.071277 -0.723432
			 0.702883  0.103450 -0.703743
			 0.969841  0.228098  0.085903
			 0.481876 -0.481428  0.732136
			 0.816469 -0.049906  0.575228
			 0.939509  0.332947  0.080436
			-0.554273 -0.786764  0.271634
			-0.382564 -0.715862  0.584111
			 0.735250  0.032159 -0.677032
			 0.902805  0.288157 -0.319233
			-0.856099 -0.424933  0.294155
			-0.331950 -0.264859  0.905350
			-0.109594 -0.451206  0.885665
			-0.847323 -0.383346  0.367546
			-0.326056 -0.076854 -0.942222
			-0.398221 -0.715688 -0.573769
			-0.486433  0.584334 -0.649567
			-0.944996 -0.324917  0.037577
			-0.010824 -0.932078  0.362097
			 0.228954 -0.324342  0.917814
			-0.348340  0.930333  0.114624
			-0.573806  0.735548 -0.360162
			 0.148153 -0.824189  0.546592
			 0.299548 -0.455091  0.838548
			 0.447293 -0.427110  0.785816
			 0.178969 -0.922865 -0.341013
			 0.439661 -0.339407  0.831565
			 0.380149 -0.222665  0.897723
			 0.374697 -0.182779  0.908952
			 0.357329 -0.379139  0.853563
			 0.144872 -0.699376  0.699918
			-0.061987 -0.778862  0.624125
			 0.054459 -0.778280  0.625552
			 0.614467 -0.601698  0.510284
			 0.427482 -0.747143  0.508957
			 0.324983 -0.785736  0.526312
			 0.189922 -0.772441  0.606024
			 0.229354 -0.701310  0.674953
			-0.200304 -0.975166 -0.094494
			 0.256923 -0.945523  0.199939
			 0.632159 -0.553911  0.541809
			 0.775116 -0.569573  0.273463
			 0.149654 -0.795391  0.587331
			 0.482328 -0.774861  0.408596
			-0.321006 -0.905872 -0.276318
			 0.177065 -0.911794 -0.370513
			 0.652197 -0.567073  0.503059
			 0.602429 -0.472383  0.643377
			 0.978830  0.153661  0.135203
			 0.791510  0.599399 -0.119303
			 0.399768  0.767197 -0.501592
			 0.133867  0.151464  0.979356
			 0.210878  0.400913  0.891515
			-0.030915  0.417229  0.908275
			 0.165896  0.031479  0.985641
			 0.129942  0.209913  0.969047
			 0.564721  0.236783  0.790585
			-0.087711  0.614642  0.783914
			 0.103967  0.785365  0.610240
			 0.033610  0.920259  0.389864
			-0.050502  0.945403  0.321967
			-0.744579 -0.000090  0.667534
			-0.678590  0.207833  0.704500
			-0.791223 -0.032435  0.610667
			-0.697786  0.533714  0.477749
			-0.666410  0.643212  0.377063
			-0.729026  0.502462  0.464815
			-0.397746  0.101923  0.911817
			-0.615563 -0.088332  0.783122
			-0.607450 -0.055774  0.792397
			-0.550543  0.658369  0.513276
			-0.619618  0.440682  0.649517
			-0.430412 -0.747816 -0.505488
			-0.829206 -0.106075  0.548785
			-0.875598  0.074494  0.477262
			-0.603913  0.101201  0.790599
			-0.709399 -0.337497 -0.618748
			 0.077717  0.296212 -0.951955
			-0.514940  0.631004  0.580233
			-0.797281  0.521961 -0.303148
			-0.769135  0.608827 -0.194321
			 0.432594 -0.577419 -0.692423
			 0.164513 -0.442068 -0.881766
			-0.352604 -0.538798 -0.765093
			-0.919282 -0.060895 -0.388861
			 0.182771  0.563179 -0.805869
			 0.230337  0.574060 -0.785748
			 0.156348  0.480613 -0.862883
			 0.099764  0.419200 -0.902396
			 0.189827 -0.006162 -0.981798
			 0.141597  0.536828 -0.831724
			 0.019799  0.534328 -0.845045
			 0.159342  0.209194 -0.964805
			-0.148161  0.072669 -0.986290
			-0.211817  0.200283 -0.956567
			-0.292081  0.152584 -0.944144
			 0.038164 -0.029118 -0.998847
			 0.772105  0.187120 -0.607322
			 0.158711 -0.006403 -0.987304
			 0.804693  0.216375 -0.552857
			 0.655763  0.507657 -0.558802
			 0.753046  0.258040 -0.605257
			 0.886438  0.328195 -0.326368
			 0.717440  0.118595 -0.686451
			 0.500673  0.152188 -0.852153
			 0.414083  0.014371 -0.910126
			 0.292238  0.457143 -0.840010
			 0.446240  0.484710 -0.752280
			 0.497063  0.634558 -0.591832
			 0.621944  0.502274 -0.600754
			 0.651593  0.049300  0.756965
			 0.418994 -0.192480  0.887353
			 0.305705  0.203244  0.930181
			 0.667669  0.337739  0.663439
			 0.888221  0.210740 -0.408231
			 0.815952  0.459644  0.350640
			-0.138261 -0.648262 -0.748759
			-0.253924 -0.165436 -0.952971
			 0.334534 -0.657623  0.674996
			 0.183303  0.261721  0.947577
			-0.533392  0.792685  0.295201
			-0.665875  0.624855 -0.407635
			-0.390404  0.008321 -0.920606
			 0.438414 -0.558787  0.703953
			 0.543715 -0.298030  0.784571
			 0.348137 -0.021509  0.937197
			 0.481017 -0.811904 -0.330809
			 0.458546 -0.554763  0.694243
			 0.537617 -0.609465  0.582684
			 0.478735 -0.472854  0.739745
			 0.425299 -0.115941  0.897596
			 0.620113 -0.399396  0.675236
			 0.499163 -0.390452  0.773552
			 0.031447 -0.856213  0.515665
			 0.398167 -0.852616  0.338392
			 0.062073 -0.822279  0.565689
			 0.601951 -0.785388  0.144295
			 0.518552 -0.808993  0.276830
			 0.596609 -0.787643  0.153871
			 0.475214 -0.821194  0.315932
			 0.118677 -0.853549  0.507317
			 0.520538 -0.799755  0.299053
			 0.165461 -0.916617 -0.363919
			 0.505238 -0.806621 -0.306753
			 0.735165 -0.368393  0.569051
			 0.806673 -0.353127  0.473899
			-0.734479 -0.254270 -0.629196
			 0.867893  0.483100 -0.115652
			 0.926848 -0.372100  0.049942
			 0.716943  0.461161 -0.522804
			 0.489417  0.706546  0.511141
			 0.564537  0.821980  0.075145
			 0.590375  0.758874 -0.274896
			-0.257072  0.926396  0.275144
			 0.338369  0.900127 -0.274367
			 0.405952  0.901130 -0.152208
			-0.435931  0.819126  0.372823
			-0.378051  0.819272 -0.431127
			-0.413428  0.799750 -0.435290
			-0.334789  0.839700 -0.427574
			-0.315334  0.877961 -0.360208
			-0.428018  0.903473  0.023179
			-0.710680  0.512379 -0.482081
			-0.459861  0.687432 -0.562108
			-0.816338  0.340513  0.466522
			-0.824174  0.253141  0.506613
			-0.806091 -0.019521  0.591470
			-0.362531  0.930794  0.046827
			 0.007117  0.949886 -0.312516
			 0.055308  0.978582 -0.198290
			 0.109273  0.947446 -0.300673
			 0.222038 -0.016176 -0.974904
			-0.920221 -0.057193 -0.387198
			-0.814341 -0.121746 -0.567474
			-0.967974 -0.224227 -0.112908
			 0.212122  0.182511 -0.960049
			 0.203942 -0.076254 -0.976009
			 0.759179 -0.579538 -0.296282
			 0.084804  0.257549  0.962537
			 0.222872  0.159890 -0.961646
			 0.243212  0.146658 -0.958822
			 0.109455  0.195708 -0.974535
			 0.080405  0.386806 -0.918649
			 0.311556  0.335907 -0.888875
			 0.642961  0.266675 -0.717974
			 0.348397 -0.138556 -0.927050
			 0.096230  0.013288 -0.995270
			 0.108591 -0.001823 -0.994085
			 0.318065  0.161491 -0.934214
			 0.080520 -0.015099 -0.996639
			 0.067916  0.003623 -0.997684
			 0.832329  0.538949 -0.129472
			 0.546333 -0.018612 -0.837361
			 0.226998 -0.021289 -0.973663
			 0.520583 -0.060093 -0.851693
			 0.333849  0.261129 -0.905735
			 0.332559  0.410747 -0.848935
			 0.299600  0.226542 -0.926779
			 0.499242 -0.118419 -0.858333
			 0.494237 -0.061366 -0.867159
			 0.351415  0.140008 -0.925692
			 0.110368  0.430214 -0.895955
			-0.062679  0.693657 -0.717574
			-0.073883  0.870533 -0.486533
			-0.146422  0.848203 -0.509031
			 0.220612  0.767777 -0.601539
			 0.512100 -0.584750  0.629143
			 0.532799 -0.107876  0.839338
			 0.328694 -0.887385  0.323277
			 0.575385 -0.802356  0.158609
			 0.605593 -0.776250  0.175193
			-0.149835  0.704993 -0.693206
			-0.156292  0.714029 -0.682448
			-0.159901  0.665090 -0.729443
			-0.222624  0.652627 -0.724235
			-0.142302  0.778700 -0.611045
			-0.375233  0.479225 -0.793438
			-0.196372  0.498357 -0.844439
			-0.844165  0.394801 -0.362653
			-0.390849  0.451962 -0.801853
			-0.922360  0.295884 -0.248404
			-0.959080 -0.040917  0.280165
			-0.931656 -0.238737  0.273902
			 0.603178  0.256655 -0.755185
			-0.030268 -0.402304 -0.915006
			 0.088844 -0.663661 -0.742739
			-0.820994 -0.278320 -0.498505
			 0.614721  0.349941 -0.706865
			 0.520256 -0.420405 -0.743366
			 0.721650  0.008357 -0.692207
			 0.227791 -0.014014 -0.973609
			 0.098151 -0.185464 -0.977737
			 0.151640 -0.018702 -0.988259
			 0.311449  0.135698 -0.940524
			 0.636431  0.312697 -0.705107
			 0.298999  0.000725 -0.954253
			 0.007155  0.075008 -0.997157
			 0.147774 -0.025863 -0.988683
			-0.129654  0.087443 -0.987696
			-0.041207  0.096660 -0.994464
			 0.497434 -0.063952 -0.865142
			 0.129409  0.506477 -0.852487
			 0.386615  0.226300 -0.894046
			 0.126090  0.305370 -0.943849
			 0.191110  0.207955 -0.959287
			 0.488265 -0.120803 -0.864294
			-0.115927  0.599878 -0.791649
			-0.478191  0.436845 -0.761905
			-0.703829  0.386836 -0.595804
			-0.001708  0.088420 -0.996082
			-0.265653  0.356851 -0.895592
			-0.593511  0.270774 -0.757909
			 0.439327 -0.484293 -0.756605
			 0.384499 -0.690184 -0.613030
			 0.033624 -0.543694 -0.838610
			 0.257205 -0.630033 -0.732737
			 0.351853 -0.709734 -0.610309
			 0.270442 -0.637150 -0.721735
			-0.066029 -0.225265 -0.972058
			 0.482267 -0.045312 -0.874852
			 0.341858 -0.473258 -0.811887
			 0.304299  0.108365 -0.946393
			 0.247643 -0.107790 -0.962837
			 0.268402 -0.113154 -0.956638
			 0.387738 -0.349910 -0.852773
			 0.138767  0.462842 -0.875512
			 0.419565 -0.383565 -0.822705
			 0.354638 -0.571656 -0.739893
			-0.461509  0.420882 -0.780941
			-0.050835 -0.112688 -0.992329
			-0.290291  0.281838 -0.914494
			-0.090715 -0.068619 -0.993510
			 0.300217 -0.510374 -0.805846
			 0.308360 -0.372905 -0.875132
		</DataArray>
	</PointData>
	<Points>
		<DataArray type="Float32" NumberOfComponents="3" format="ascii">
			-0.083857 -0.066524  0.055771
			-0.079255 -0.059550  0.066478
			-0.086422 -0.064424  0.058714
			-0.086541 -0.068149  0.054981
			-0.077618 -0.067872  0.054663
			-0.086786 -0.059209  0.069834
			-0.071432 -0.061278  0.066255
			-0.079428 -0.057034  0.075754
			-0.092010 -0.067735  0.059522
			-0.091112 -0.061836  0.068123
			-0.085367 -0.079810  0.049272
			-0.091218 -0.077195  0.053346
			-0.071108 -0.065682  0.059863
			-0.072601 -0.072007  0.053693
			-0.077500 -0.077562  0.049620
			-0.091230 -0.060990  0.071444
			-0.085289 -0.057731  0.077014
			-0.065166 -0.068234  0.063146
			-0.064075 -0.065346  0.071148
			-0.061044 -0.066931  0.077157
			-0.072372 -0.059658  0.090665
			-0.065078 -0.062746  0.084337
			-0.082312 -0.059596  0.092364