<?xml version="1.0"?>
<VTKFile type="PolyData" version="0.1" byte_order="LittleEndian" compressor="vtkZLibDataCompressor">
	<PolyData>
		<Piece NumberOfPoints="3558" NumberOfVerts="0" NumberOfLines="0" NumberOfStrips="0" NumberOfPolys="7126">
		<PointData Normals="Normals">
		<DataArray type="Float32" Name="Normals" NumberOfComponents="3" format="ascii">
			-0.001515  0.251190  0.967936
			-0.028469  0.240208  0.970304
			 0.191062  0.090986  0.977352
			 0.181464  0.176610  0.967409
			-0.110913  0.262722  0.958476
			 0.144176  0.275277  0.950492
			 0.349368  0.205986  0.914064
			 0.277456 -0.005199  0.960724
			-0.111885  0.338130  0.934425
			-0.069107  0.194123  0.978540
			 0.172526 -0.061956  0.983055
			-0.036629  0.320411  0.946570
			 0.474021 -0.235123  0.848540
			 0.364760 -0.020784  0.930870
			 0.422194  0.080192  0.902952
			 0.364732  0.170384  0.915390
			-0.030808  0.292554  0.955753
			 0.068141  0.191606  0.979104
			-0.114126  0.139343  0.983646
			-0.179983  0.246533  0.952275
			 0.553596  0.196035  0.809383
			 0.395275  0.196419  0.897317
			 0.630640  0.081009  0.771836
			 0.577078  0.076806  0.813070
			 0.708482  0.111344  0.696890
			 0.348671 -0.181541  0.919495
			 0.034748  0.359852  0.932362
			-0.103145  0.456386  0.883783
			 0.192656 -0.093509  0.976801
			 0.304602 -0.398110  0.865289
			 0.416282 -0.455083  0.787152
			 0.030585  0.350494  0.936066
			 0.112995  0.184134  0.976385
			 0.648122 -0.358333  0.671964
			 0.587484 -0.641777  0.492935
			 0.605951 -0.102589  0.788859
			 0.636627 -0.003289  0.771165
			 0.570759  0.091824  0.815967
			-0.074920  0.406715  0.910478
			-0.263462  0.330221  0.906390
			 0.053576  0.094114  0.994119
			 0.306134  0.113722  0.945172
			-0.179821  0.049397  0.982458
			 0.001144  0.106663  0.994295
			-0.203606  0.114416  0.972344
			-0.222223  0.189113  0.956480
			-0.283429  0.223709  0.932535
			 0.654243  0.138170  0.743556
			 0.835994  0.082224  0.542544
			 0.585311  0.109668  0.803358
			 0.801598 -0.050894  0.595693
			 0.809507 -0.002089  0.587107
			 0.791236 -0.089778  0.604885
			 0.933312 -0.014449  0.358776
			-0.080166  0.411408  0.907919
			 0.459981 -0.587320  0.665938
			 0.378196 -0.113331  0.918762
			 0.315266 -0.528092  0.788496
			 0.357959 -0.662883  0.657611
			 0.470170 -0.743519  0.475521
			-0.027408  0.266214  0.963524
			 0.237856  0.269360  0.933204
			 0.676307 -0.668080  0.310287
			 0.740382 -0.493796  0.456071
			 0.747617 -0.247086  0.616455
			 0.514925 -0.791740  0.328634
			 0.582168 -0.763205  0.280354
			-0.272043  0.431386  0.860174
			-0.216103  0.252533  0.943147
			-0.183337  0.276470  0.943372
			-0.118057  0.400933  0.908469
			-0.036660  0.254523  0.966372
			-0.355335  0.398656  0.845465
			-0.445022  0.324346  0.834719
			 0.292192  0.112336  0.949739
			 0.570138  0.116719  0.813215
			-0.154170 -0.016440  0.987908
			-0.237576  0.040473  0.970525
			-0.228187 -0.014344  0.973512
			-0.244489 -0.038163  0.968901
			-0.025724  0.008751  0.999631
			 0.073830  0.115127  0.990603
			 0.282879  0.157747  0.946095
			-0.316434  0.074314  0.945699
			-0.323510  0.167452  0.931290
			-0.432871  0.241677  0.868455
			-0.592969  0.251790  0.764847
			-0.525834  0.194242  0.828112
			 0.819669  0.091916  0.565415
			 0.972653  0.004008  0.232230
			 0.797423  0.110104  0.593291
			 0.896696 -0.120267  0.425996
			 0.906463 -0.068791  0.416644
			 0.817778 -0.290871  0.496621
			 0.909465 -0.202937  0.362891
			 0.980196 -0.007336  0.197893
			 0.509770 -0.694603  0.507604
			 0.589355 -0.790541  0.166454
			 0.293445 -0.925706  0.238659
			 0.398253 -0.811796  0.427062
			 0.382206 -0.563231  0.732591
			 0.271491 -0.306672  0.912274
			 0.301265  0.042193  0.952606
			 0.101976  0.007906  0.994756
			 0.082207  0.148592  0.985476
			 0.632687 -0.688561  0.354389
			 0.605696 -0.642993  0.468713
			 0.679321 -0.601718  0.420069
			 0.832061 -0.484376  0.270286
			 0.298006 -0.910109  0.287912
			 0.484282 -0.666558  0.566720
			-0.328848  0.336215  0.882507
			-0.367118  0.389523  0.844687
			-0.291450 -0.096866  0.951669
			-0.122923 -0.302980  0.945036
			-0.153194 -0.068800  0.985798
			-0.135568  0.223718  0.965179
			 0.012500  0.012033  0.999849
			 0.140347 -0.096573  0.985381
			-0.447355  0.357810  0.819662
			-0.601855  0.267082  0.752621
			-0.696478  0.233890  0.678391
			-0.709179  0.281646  0.646328
			 0.578656  0.159467  0.799830
			 0.790530  0.154702  0.592561
			-0.090916 -0.136221  0.986498
			-0.227092 -0.237075  0.944577
			-0.236605 -0.024351  0.971301
			-0.271914 -0.025342  0.961988
			-0.301247 -0.011327  0.953479
			-0.270156  0.073337  0.960020
			-0.350251  0.060000  0.934732
			 0.015165 -0.101175  0.994753
			 0.185644  0.133310  0.973532
			 0.276358 -0.060936  0.959121
			 0.478951  0.244842  0.843006
			 0.588164  0.219385  0.778417
			-0.439028  0.101970  0.892668
			-0.571940  0.117381  0.811854
			-0.349050 -0.010710  0.937043
			-0.302067 -0.013828  0.953187
			-0.374800  0.108541  0.920730
			-0.379991  0.158098  0.911379
			-0.639190  0.266580  0.721367
			-0.708249  0.247537  0.661142
			-0.525111  0.157095  0.836409
			-0.489167  0.127140  0.862874
			-0.539197  0.146772  0.829291
			 0.957189  0.065759  0.281895
			 0.999453 -0.032301 -0.007105
			 0.919651  0.129133  0.370899
			 0.908015 -0.394530  0.140904
			 0.961863 -0.088412  0.258848
			 0.923632  0.011760  0.383100
			 0.956347  0.144307  0.254118
			 0.998276  0.057453 -0.012022
			 0.171181 -0.892154  0.418041
			 0.275985 -0.936640 -0.215725
			 0.293759 -0.952488 -0.080445
			 0.698574 -0.714741 -0.033759
			 0.379658 -0.917933  0.115144
			 0.098992 -0.531564  0.841213
			 0.020015 -0.303130  0.952739
			 0.562180 -0.593569  0.575873
			 0.757520 -0.632115  0.163080
			 0.652152 -0.683697  0.327500
			 0.499090 -0.706598  0.501626
			 0.849735 -0.518720  0.094231
			 0.145018 -0.908274  0.392439
			 0.484699 -0.740430  0.465650
			 0.386752 -0.607122  0.694137
			 0.284624 -0.706855  0.647569
			-0.390840  0.339661  0.855497
			-0.456031  0.172166  0.873152
			-0.413411 -0.005740  0.910527
			-0.618903  0.073006  0.782068
			-0.472308  0.190319  0.860641
			-0.478063 -0.423813  0.769311
			-0.299122 -0.667996  0.681401
			-0.100971 -0.820759  0.562280
			-0.783397  0.151316  0.602821
			-0.841588 -0.030830  0.539240
			-0.865995  0.029187  0.499200
			-0.706401  0.111178  0.699026
			 0.810404  0.215429  0.544826
			 0.923513  0.220832  0.313620
			 0.125673 -0.205386  0.970579
			 0.143495 -0.059506  0.987861
			-0.263642 -0.074731  0.961721
			-0.326575 -0.184398  0.927009
			-0.362792 -0.015640  0.931739
			-0.069212 -0.223174  0.972318
			-0.070793 -0.217781  0.973427
			 0.599402 -0.198600  0.775420
			-0.288084 -0.199912  0.936505
			 0.003878 -0.335511  0.942028
			-0.257697  0.310896  0.914842
			-0.295214  0.071377  0.952761
			-0.250716  0.202659  0.946610
			-0.377543  0.246431  0.892599
			-0.362426  0.160443  0.918099
			-0.468083  0.064225  0.881347
			-0.430516  0.247905  0.867871
			-0.564039  0.217349  0.796631
			-0.536360  0.320130  0.780919
			 0.439264  0.035547  0.897655
			 0.770735  0.241223  0.589728
			 0.701620  0.000376  0.712551
			 0.829488  0.506727  0.234898
			 0.892127  0.404237  0.201748
			 0.767636  0.358449  0.531272
			-0.409042  0.075303  0.909403
			-0.543823 -0.014159  0.839080
			-0.655536  0.179472  0.733527
			-0.625532  0.099238  0.773861
			-0.630628  0.020717  0.775809
			-0.718132  0.206122  0.664681
			-0.580462  0.135129  0.802997
			-0.610611 -0.049844  0.790361
			-0.670809  0.028874  0.741068
			-0.604311  0.140970  0.784179
			 0.973111  0.130000  0.190142
			 0.999344 -0.030505 -0.019525
			 0.986052 -0.081440  0.145150
			 0.974343  0.017597  0.224381
			 0.872671 -0.488306  0.001596
			 0.917697 -0.392705  0.060123
			 0.953905 -0.246446  0.171260
			 0.938574  0.021766  0.344390
			 0.889568  0.186910  0.416813
			 0.939294  0.273817  0.206762
			 0.963573  0.250435  0.093858
			 0.039308 -0.998961  0.023070
			 0.092637 -0.985678 -0.140914
			 0.241266 -0.889418 -0.388235
			 0.155892 -0.680458 -0.716013
			-0.020931 -0.566218 -0.823989
			 0.326992 -0.809539 -0.487568
			 0.159778 -0.828738 -0.536343
			 0.505269 -0.809597  0.298757
			 0.593225 -0.779069  0.202819
			 0.826014 -0.562463 -0.036553
			 0.366148 -0.782805  0.503143
			 0.250933 -0.675440  0.693407
			-0.465144 -0.877133  0.119494
			-0.218239 -0.881287  0.419172
			-0.454724 -0.890474  0.016797
			-0.014017 -0.721299  0.692481
			-0.566179 -0.169257  0.806718
			-0.872945 -0.052379  0.484998
			-0.791836 -0.408987  0.453570
			-0.712953 -0.336088  0.615421
			-0.409383 -0.848067  0.336433
			-0.612559 -0.615238  0.496239
			-0.167103 -0.967968  0.187389
			-0.888459 -0.351652  0.294928
			-0.871217 -0.393570  0.293400
			-0.916423 -0.209733  0.340852
			-0.816801 -0.079399  0.571430
			-0.879429 -0.206067  0.429117
			-0.758332 -0.041315  0.650558
			 0.877376  0.453763  0.155918
			 0.924032  0.322379  0.205515
			 0.140730 -0.134956  0.980807
			 0.640092  0.133043  0.756691
			 0.519706 -0.066391  0.851761
			-0.276982  0.135079  0.951333
			-0.400460 -0.021462  0.916063
			-0.300533 -0.128463  0.945081
			-0.428443  0.311947  0.848013
			-0.299470  0.399311  0.866526
			-0.201063 -0.234913  0.950994
			 0.029982  0.059043  0.997805
			 0.249143  0.117450  0.961319
			 0.282235 -0.000773  0.959345
			-0.058002 -0.156504  0.985973
			 0.790305 -0.153844  0.593085
			 0.943312 -0.046794  0.328592
			-0.324621  0.336817  0.883841
			-0.169379  0.807778  0.564628
			-0.269491  0.720772  0.638641
			-0.227083  0.526319  0.819403
			-0.311284  0.532677  0.786993
			-0.318263  0.517648  0.794198
			-0.389103  0.367273  0.844813
			-0.605318  0.181104  0.775107
			-0.461472  0.439190  0.770815
			-0.670014  0.311543  0.673811
			-0.691303  0.435090  0.576886
			-0.599676  0.585196  0.545833
			 0.873441  0.247648  0.419250
			 0.921402  0.240273  0.305428
			 0.898316  0.406947 -0.165596
			 0.797005  0.486906 -0.357359
			 0.704030  0.703059 -0.100242
			 0.628637  0.605687 -0.487811
			-0.704785 -0.150840  0.693199
			-0.719272 -0.068587  0.691334
			-0.815006 -0.215433  0.537917
			-0.665388  0.127376  0.735550
			-0.858382  0.035820  0.511758
			-0.717863  0.029816  0.695545
			-0.835656  0.113174  0.537467
			-0.824102 -0.051983  0.564051
			-0.848703 -0.087332  0.521610
			-0.704424  0.208002  0.678617
			-0.696323  0.175561  0.695926
			-0.730308  0.198364  0.653684
			-0.695539  0.258400  0.670413
			-0.831191 -0.144114  0.536985
			-0.859683 -0.249849  0.445558
			-0.710058 -0.240199  0.661907
			-0.724104 -0.273616  0.633094
			 0.959871  0.124453  0.251315
			 0.960959  0.190118  0.201027
			 0.932770  0.240125  0.268848
			 0.874904  0.104878  0.472804
			 0.905932 -0.014744  0.423167
			 0.890161 -0.062316  0.451364
			 0.875913 -0.132801  0.463832
			 0.942025  0.059810  0.330170
			 0.940057  0.093399  0.327976
			 0.876323 -0.465002 -0.125826
			 0.910217 -0.412443 -0.037355
			 0.976757 -0.212971  0.024290
			 0.958513 -0.035585  0.282820
			 0.875212  0.144836  0.461548
			 0.812882  0.224641  0.537363
			 0.808876  0.364785  0.461142
			 0.733228  0.431075  0.525881
			 0.160249 -0.956629 -0.243270
			-0.016581 -0.985234 -0.170408
			 0.324367 -0.839669 -0.435593
			 0.446199 -0.654550 -0.610304
			 0.379787 -0.809148 -0.448378
			 0.484142 -0.868274 -0.108201
			 0.127638 -0.641927 -0.756068
			-0.120784 -0.990271 -0.069093
			 0.336554 -0.875525  0.346681
			 0.357173 -0.858229  0.368606
			 0.417475 -0.874759  0.245992
			 0.394981 -0.886214  0.242106
			 0.657813 -0.739454  0.143146
			 0.774215 -0.630194 -0.058699
			 0.843894 -0.498743 -0.197733
			 0.855359 -0.502616 -0.125453
			 0.215128 -0.774503  0.594865
			-0.642888 -0.765901  0.009509
			-0.235758 -0.936580 -0.259298
			-0.240962 -0.962457  0.124955
			-0.597667 -0.685093  0.416463
			-0.381236 -0.493733  0.781592
			 0.043255 -0.752919  0.656690
			-0.660328 -0.744889  0.095429
			-0.673250 -0.716833  0.181340
			-0.268707 -0.959272 -0.087148
			-0.483868 -0.874615 -0.030350
			-0.704530 -0.692347  0.155864
			-0.823895 -0.514849  0.236912
			-0.866449 -0.377235  0.327047
			-0.844206 -0.300287  0.444009
			-0.822805 -0.416088  0.387121
			 0.543472  0.826602 -0.146178
			 0.734255  0.668267  0.119536
			 0.664022  0.483565  0.570297
			 0.663809  0.298280  0.685848
			 0.904758  0.393426  0.163184
			-0.362046  0.382374  0.850125
			-0.218929  0.164494  0.961775
			-0.165757  0.025693  0.985832
			-0.207267  0.867459  0.452278
			-0.222781  0.719388  0.657913
			 0.043433  0.033896  0.998481
			 0.216411  0.439096  0.871987
			 0.338920  0.372442  0.863956
			 0.650804  0.403431  0.643193
			-0.140521  0.982418 -0.122915
			 0.015281  0.950407  0.310633
			 0.083250  0.972985 -0.215334
			-0.036810  0.873664  0.485135
			-0.002458  0.999421 -0.033951
			-0.110076  0.724966  0.679932
			-0.360295  0.557209  0.748135
			-0.234593  0.767898  0.596070
			-0.714290  0.319929  0.622443
			-0.433127  0.694041  0.575072
			-0.754581  0.454546  0.473282
			-0.718823  0.652390  0.240167
			-0.542258  0.758258  0.361942
			 0.934269  0.269873 -0.233043
			 0.861783  0.374234 -0.342460
			 0.659109  0.276510 -0.699369
			 0.672654  0.456211 -0.582587
			 0.221723  0.763489 -0.606567
			 0.504737  0.390902 -0.769699
			 0.620665  0.354712 -0.699253
			-0.820390 -0.319122  0.474470
			-0.866923 -0.292113  0.403874
			-0.951360 -0.214577  0.221067
			-0.918055 -0.309905  0.247253
			-0.915126  0.133854  0.380300
			-0.780099  0.114294  0.615128
			-0.971338 -0.096368  0.217293
			-0.964524  0.000853  0.263993
			-0.969487  0.062238  0.237109
			-0.817262  0.253267  0.517627
			-0.835292  0.333016  0.437478
			-0.852961  0.202295  0.481180
			-0.879375  0.281742  0.383825
			-0.811587  0.435520  0.389421
			-0.912741 -0.317547  0.257037
			-0.882891 -0.461126  0.088688
			-0.832156 -0.479124  0.279207
			-0.808187 -0.386300  0.444529
			 0.983797  0.061508  0.168407
			 0.994538  0.073209  0.074391
			 0.951157  0.167873  0.259073
			 0.923946  0.239854  0.297983
			 0.897113  0.392507  0.202797
			 0.764950  0.448333  0.462438
			 0.778143  0.534154  0.330413
			 0.748522  0.142052  0.647716
			 0.658994  0.266437  0.703376
			 0.899175 -0.008795  0.437500
			 0.831925 -0.000618  0.554888
			 0.787335 -0.008267  0.616469
			 0.883980  0.115526  0.453026
			 0.979622  0.091145  0.178978
			 0.870126 -0.452362 -0.195576
			 0.932379 -0.325151 -0.157944
			 0.940973 -0.304083 -0.148672
			 0.977545 -0.174173 -0.118613
			 0.990616 -0.132294  0.034320
			 0.979062 -0.029755  0.201378
			 0.814179  0.207729  0.542181
			 0.832191  0.063887  0.550797
			 0.779383  0.130193  0.612872
			 0.048565 -0.992862 -0.108936
			 0.481783 -0.873360 -0.071610
			-0.257093 -0.937700 -0.233715
			 0.526920 -0.816414  0.236271
			 0.676427 -0.698261  0.234262
			 0.219848 -0.952583  0.210364
			 0.299350 -0.874264  0.382167
			 0.062630 -0.764021  0.642145
			 0.210893 -0.956945  0.199451
			 0.136573 -0.898446  0.417304
			 0.070111 -0.908935  0.411000
			 0.199398 -0.942657  0.267655
			 0.581460 -0.811805  0.053629
			 0.280111 -0.927944  0.245880
			 0.268325 -0.939419  0.213295
			 0.740179 -0.634166 -0.223539
			 0.741636 -0.537755 -0.400993
			 0.809015 -0.443245 -0.386043
			-0.950390 -0.289690  0.113307
			 0.544075 -0.836651  0.063225
			-0.029087 -0.291587 -0.956102
			 0.592642 -0.752968  0.286032
			-0.673718  0.249843 -0.695473
			-0.408735 -0.463315  0.786305
			-0.462212 -0.885786 -0.041753
			-0.490040 -0.865162 -0.106562
			-0.600419 -0.778716  0.181933
			-0.766314 -0.559762  0.315325
			-0.791785 -0.538132  0.288947
			-0.853377 -0.487246  0.185307
			-0.067723  0.975785 -0.207984
			 0.122373  0.678177  0.724638
			 0.906114  0.420749  0.043914
			 0.767843  0.376069 -0.518641
			-0.299729  0.546386  0.782065
			-0.232007  0.896224  0.378093
			-0.006128  0.695808  0.718202
			 0.082646  0.449356  0.889522
			-0.015073  0.998508  0.052492
			 0.040599  0.960721 -0.274532
			-0.000771  0.965521 -0.260323
			 0.370217  0.727527  0.577619
			 0.577189  0.615917  0.536190
			 0.858439  0.510675  0.047898
			 0.067550  0.919802 -0.386526
			 0.048766  0.870862 -0.489102
			 0.204207  0.947335 -0.246690
			 0.217259  0.869372 -0.443837
			 0.365111  0.776126  0.514123
			 0.381846  0.917532  0.111032
			 0.338902  0.928255 -0.153256
			 0.110108  0.938957  0.325938
			-0.150155  0.937076  0.315186
			-0.334869  0.852890  0.400552
			-0.820156  0.566153  0.082550
			-0.655404  0.755129 -0.015020
			-0.389033  0.900064  0.196310
			-0.574453  0.812298  0.100869
			 0.613907  0.194898 -0.764940
			 0.556201  0.263193 -0.788270
			 0.015973  0.290123 -0.956856
			 0.837967  0.306446 -0.451555
			 0.696117  0.219067 -0.683689
			 0.583086  0.397024 -0.708790
			 0.417347  0.185929 -0.889524
			-0.861197 -0.464248  0.206913
			-0.894009 -0.360879  0.265545
			-0.963881 -0.262540 -0.044785
			-0.983204 -0.164741 -0.078556
			-0.942632 -0.327418 -0.065137
			-0.994664  0.070816  0.075026
			-0.985084  0.169866  0.027498
			-0.937326  0.271056  0.218972
			-0.998108 -0.061178  0.006104
			-0.916533  0.356872  0.180582
			-0.890769  0.429324  0.149037
			-0.930477  0.333981  0.150559
			-0.868528 -0.493727 -0.043506
			-0.826419 -0.530843 -0.187717
			-0.834836 -0.509167 -0.209281
			-0.839185 -0.543369 -0.022764
			-0.793502 -0.604952 -0.066238
			-0.822785 -0.543637  0.165779
			 0.840219  0.299897  0.451768
			 0.815534  0.388038  0.429338
			 0.844023  0.430327  0.320070
			 0.326271  0.744472  0.582502
			 0.928374  0.000856  0.371646
			 0.791008  0.046893  0.610006
			 0.991208 -0.014199  0.131549
			 0.824825 -0.023376  0.564905
			 0.993831 -0.092710  0.060858
			 0.917428 -0.114779  0.380987
			 0.703579  0.192115  0.684155
			 0.881643 -0.320943 -0.345979
			 0.964270 -0.203646 -0.169445
			 0.987630 -0.108195 -0.113490
			 0.984202 -0.124453 -0.125927
			 0.986466 -0.146712 -0.073210
			 0.088148 -0.983324  0.159069
			-0.231242 -0.972561  0.025517
			 0.468571 -0.858372  0.208898
			 0.039730 -0.903279  0.427210
			-0.080264 -0.920174  0.383194
			-0.290422 -0.782323  0.551022
			 0.050156 -0.997488  0.050022
			-0.022798 -0.969424  0.244329
			-0.020168 -0.894424  0.446766
			 0.008597 -0.919639  0.392672
			-0.327896 -0.792390  0.514395
			-0.315355 -0.834535  0.451778
			-0.151546 -0.881026  0.448138
			 0.537399 -0.843328  0.000917
			 0.238523 -0.943862  0.228541
			-0.135602 -0.928744  0.345032
			 0.558043 -0.744404 -0.366676
			 0.653391 -0.608157 -0.450806
			 0.669403 -0.487529 -0.560549
			 0.588405 -0.565269 -0.578144
			 0.613881 -0.567919 -0.548287
			 0.763779 -0.376144 -0.524555
			 0.828582 -0.297727 -0.474142
			-0.620914  0.593602 -0.511959
			-0.533632 -0.220234  0.816538
			 0.656848 -0.614521 -0.436937
			 0.506877 -0.850076  0.142989
			-0.310901  0.322153 -0.894180
			 0.478761 -0.303776 -0.823716
			 0.048697  0.029903 -0.998366
			 0.347912 -0.909348  0.228129
			-0.453096  0.451752 -0.768521
			-0.593370  0.547647 -0.589910
			-0.571441 -0.564881  0.595285
			-0.406770 -0.909441  0.086339
			-0.578106 -0.779205  0.242142
			-0.710056 -0.699530  0.080491
			-0.164486  0.133160 -0.977350
			-0.933489  0.044959 -0.355778
			-0.858578  0.272868  0.434036
			 0.860193  0.393967 -0.323819
			 0.858501  0.248236 -0.448726
			-0.078221  0.836060  0.543034
			 0.069644  0.996853  0.037859
			 0.212020  0.971039  0.110142
			 0.251769  0.810203  0.529323
			 0.198996  0.891031 -0.407999
			-0.092943  0.920112 -0.380466
			 0.110931  0.833300 -0.541576
			 0.139155  0.939320 -0.313551
			 0.329606  0.940893  0.077973
			 0.497766  0.856299  0.137773
			 0.734010  0.677105  0.052520
			 0.821890  0.514769 -0.243946
			 0.420606  0.877792  0.229283
			 0.253250  0.967380 -0.006372
			 0.381065  0.912915 -0.146206
			 0.284774  0.820680 -0.495366
			 0.438276  0.763303  0.474640
			 0.658798  0.517433  0.546121
			 0.610625  0.684479  0.398278
			-0.069641  0.989207  0.128920
			 0.027331  0.968574  0.247221
			-0.706374  0.707175  0.030657
			-0.909794  0.412042 -0.049963
			-0.496043  0.867514  0.036894
			-0.365096  0.921225  0.134349
			-0.096087  0.970828  0.219684
			 0.710740  0.193022 -0.676454
			 0.908072 -0.009312 -0.418711
			 0.853125  0.212990 -0.476249
			 0.899622  0.125416 -0.418271
			 0.216107  0.044945 -0.975335
			 0.959082  0.056078 -0.277519
			 0.991725  0.127002 -0.018752
			 0.996394  0.083670 -0.014108
			 0.883978  0.108714 -0.454713
			 0.770939  0.049920 -0.634949
			 0.588089  0.150191 -0.794729
			 0.572415 -0.029436 -0.819436
			-0.884561 -0.466317 -0.010006
			-0.901963 -0.371843 -0.219536
			-0.978996 -0.123127 -0.162501
			-0.963947 -0.164385 -0.209246
			-0.879026 -0.424549 -0.216958
			-0.936792 -0.320720 -0.139852
			-0.992536 -0.007958 -0.121689
			-0.965099  0.175608 -0.194281
			-0.977329  0.017862 -0.210970
			-0.951220  0.308095 -0.016064
			-0.806760 -0.571519 -0.150013
			-0.866730 -0.480742 -0.132914
			-0.800346 -0.534086 -0.272394
			-0.822657 -0.498904 -0.272637
			-0.842179 -0.515476 -0.158172
			-0.788603 -0.611673 -0.062941
			-0.809686 -0.544423 -0.219117
			 0.599984  0.302937  0.740438
			 0.837954  0.300707  0.455422
			 0.638196  0.351427  0.684985
			 0.793372  0.388590  0.468571
			 0.476791  0.479666  0.736608
			 0.589602  0.571211  0.571041
			 0.776292  0.100664  0.622285
			 0.869115  0.034378  0.493414
			 0.994128 -0.059347 -0.090487
			 0.956202 -0.042461  0.289611
			 0.995799 -0.078083 -0.047821
			 0.641063  0.153501  0.751981
			 0.886575 -0.219148 -0.407380
			 0.948641 -0.143342 -0.282017
			-0.035571 -0.992173  0.119701
			 0.205341 -0.952366 -0.225465
			-0.376625 -0.907447  0.186260
			 0.080070 -0.989786  0.117950
			-0.520149 -0.654414  0.548805
			-0.456965 -0.833253 -0.311245
			 0.210478 -0.966868  0.144447
			 0.030513 -0.808823  0.587260
			-0.249376 -0.881795  0.400312
			-0.804296 -0.371935  0.463435
			-0.564323 -0.702363  0.433850
			-0.633838 -0.591784  0.498038
			-0.296816 -0.701129  0.648320
			 0.402583 -0.910300 -0.096334
			 0.210948 -0.977415 -0.012677
			-0.009303 -0.952546  0.304253
			-0.711274 -0.533567  0.457598
			-0.346352 -0.800415  0.489261
			 0.366106 -0.862828 -0.348560
			 0.384252 -0.878413 -0.284152
			 0.498218 -0.686010 -0.530254
			 0.534494 -0.515782 -0.669541
			 0.620035 -0.400711 -0.674527
			 0.485323 -0.526879 -0.697754
			 0.495785 -0.534122 -0.684771
			 0.510702 -0.661482 -0.549204
			 0.516139 -0.606239 -0.605041
			 0.800857 -0.306256 -0.514621
			 0.854570 -0.270556 -0.443294
			-0.506170  0.859606  0.069783
			-0.338964  0.794930  0.503179
			-0.442696  0.836816 -0.322117
			-0.634687 -0.530653  0.561765
			-0.498430  0.253504  0.829038
			 0.703847 -0.561893 -0.434598
			 0.817942 -0.263570 -0.511372
			 0.377352 -0.925491  0.032756
			-0.241037  0.158651 -0.957461
			-0.368423  0.298711 -0.880361
			 0.299798  0.135105 -0.944388
			 0.715563 -0.677826 -0.168884
			 0.943011 -0.331256  0.031606
			 0.634521 -0.350825 -0.688698
			-0.635294  0.565834 -0.525579
			-0.637652  0.620986 -0.455826
			-0.766196 -0.449945  0.458795
			-0.413813 -0.910352  0.004228
			-0.700430 -0.706890 -0.098507
			 0.322652  0.062761 -0.944434
			 0.303232  0.136226 -0.943129
			-0.308738  0.023498 -0.950857
			-0.996933  0.026641 -0.073587
			-0.873671 -0.000386 -0.486518
			-0.990133 -0.134134  0.040550
			-0.899148 -0.371902  0.230699
			-0.842991  0.313429  0.437182
			-0.927960 -0.070939  0.365866
			 0.980055  0.148925 -0.131584
			 0.885260  0.437903 -0.156700
			 0.162417  0.946975 -0.277234
			 0.038066  0.742950 -0.668264
			-0.380623  0.661934 -0.645732
			-0.290463  0.928392 -0.231776
			-0.036829  0.988126 -0.149169
			 0.445956  0.728259 -0.520348
			 0.300728  0.932144 -0.201667
			 0.534382  0.826838 -0.175426
			 0.589973  0.793937 -0.146953
			 0.573311  0.544906  0.611876
			 0.420469  0.712551  0.561673
			 0.260487  0.885258  0.385311
			 0.430160  0.606403  0.668759
			 0.686502  0.714082  0.137116
			 0.258744  0.906028  0.334910
			 0.438444  0.695413  0.569357
			-0.797922  0.602672  0.010314
			-0.692046  0.698351  0.182698
			-0.523463  0.823432  0.218967
			-0.942888  0.252513 -0.217255
			-0.960433  0.243515 -0.135166
			-0.955419  0.228797 -0.186618
			-0.902355  0.399958 -0.160590
			-0.931280  0.324364 -0.165851
			-0.885111  0.459575 -0.073281
			-0.205935  0.930970  0.301474
			-0.208129  0.930509  0.301389
			 0.093674  0.892737  0.440734
			-0.053534  0.934748  0.351256
			 0.987198 -0.153194 -0.044393
			 0.998188  0.047144  0.037403
			 0.999934  0.010056  0.005480
			 0.868221 -0.369286 -0.331391
			 0.552646 -0.562675 -0.614800
			 0.539990 -0.118826 -0.833241
			 0.977581  0.019467 -0.209656
			 0.993172  0.035433  0.111152
			 0.989763  0.103078 -0.098713
			 0.805534 -0.191637 -0.560705
			 0.722217 -0.006965 -0.691632
			-0.877464 -0.440734 -0.189238
			-0.911893 -0.356652 -0.203100
			-0.966329 -0.123601 -0.225681
			-0.855446 -0.513894 -0.064231
			-0.990771 -0.108281 -0.081531
			-0.928541 -0.366306  0.060260
			-0.982551 -0.142642 -0.119359
			-0.913850 -0.403895  0.041794
			-0.975460  0.052497 -0.213827
			-0.890647 -0.407572  0.201576
			-0.861128 -0.500535  0.089014
			-0.879534 -0.468759 -0.081761
			-0.886450 -0.459616 -0.054396
			-0.747148 -0.664532 -0.012921
			-0.748179 -0.627261  0.216270
			-0.896605 -0.420529  0.138759
			-0.805871 -0.567565  0.168648
			 0.428749  0.266680  0.863166
			 0.697469  0.292189  0.654342
			 0.360336  0.356763  0.861904
			 0.482730  0.394826  0.781719
			-0.994210  0.002129  0.107434
			-0.620235  0.317642  0.717225
			 0.839323  0.062245  0.540058
			 0.978216  0.029037 -0.205551
			 0.994212  0.037703 -0.100603
			 0.963893 -0.039246 -0.263380
			 0.960404  0.004877  0.278567
			 0.999423 -0.025053  0.022915
			 0.949150 -0.049859 -0.310850
			 0.808689  0.059422  0.585228
			 0.779018  0.182707  0.599790
			 0.629104  0.232683  0.741679
			 0.436698  0.289137  0.851877
			 0.872723 -0.269100 -0.407357
			 0.947590 -0.127289 -0.293038
			 0.853013 -0.456185 -0.253503
			-0.268938 -0.950315  0.156761
			-0.346852 -0.912158  0.218317
			-0.236390 -0.924617  0.298668
			 0.240003 -0.904769  0.351840
			 0.790142 -0.582407  0.190989
			-0.837190  0.044619 -0.545089
			 0.258298 -0.033796 -0.965474
			 0.308450 -0.948893 -0.066790
			 0.144626 -0.815292  0.560698
			-0.076386 -0.769749  0.633760
			-0.195979 -0.654640  0.730095
			-0.827411 -0.276386  0.488878
			-0.967173  0.073455  0.243271
			-0.975159  0.067788  0.210878
			-0.481588 -0.269884  0.833808
			-0.205114 -0.765556  0.609797
			-0.409018 -0.613470  0.675543
			 0.085654 -0.942740  0.322343
			 0.286000 -0.943275 -0.168632
			-0.763707  0.493724  0.415918
			-0.070007  0.048265  0.996378
			-0.027497 -0.590379  0.806657
			 0.150469 -0.988219  0.027989
			 0.199208 -0.942753 -0.267456
			 0.279043 -0.960279 -0.000324
			 0.321103 -0.811248 -0.488640
			 0.279467 -0.715676 -0.640083
			 0.322569 -0.625626 -0.710310
			 0.493562 -0.421063 -0.760988
			 0.484858 -0.484748 -0.727964
			 0.490706 -0.459687 -0.740200
			 0.655104 -0.416434 -0.630413
			 0.343748 -0.494823 -0.798115
			 0.265840 -0.512247 -0.816659
			 0.831060 -0.285894 -0.477079
			 0.738595 -0.327540 -0.589232
			 0.780905 -0.298956 -0.548465
			 0.014301  0.638794  0.769245
			 0.471299  0.675789  0.566733
			-0.164027  0.416942  0.894010
			-0.217259  0.684003  0.696376
			-0.097543  0.988884 -0.112218
			-0.657342  0.202940  0.725753
			 0.777490 -0.092948 -0.621988
			 0.835257 -0.549620  0.016248
			-0.230011 -0.240261 -0.943064
			 0.077982 -0.168349 -0.982638
			 0.028915 -0.315638 -0.948439
			-0.115774  0.044171 -0.992293
			-0.491863  0.377942 -0.784366
			 0.550392 -0.429363 -0.716042
			 0.350304 -0.822246  0.448552
			 0.560915 -0.563721  0.606294
			 0.966122  0.066241  0.249440
			 0.937156  0.337084 -0.090068
			 0.671197 -0.378793  0.637189
			 0.540999 -0.265315 -0.798078
			 0.692195 -0.114563 -0.712559
			 0.261177 -0.328419 -0.907704
			 0.035120 -0.538554 -0.841858
			-0.371618  0.804402 -0.463507
			-0.748960  0.482146 -0.454527
			-0.812594  0.466573 -0.349285
			-0.490923 -0.870913 -0.022479
			-0.216788 -0.975770 -0.029578
			 0.707255  0.320124 -0.630326
			 0.186340  0.055908 -0.980893
			-0.418490 -0.086019 -0.904139
			-0.764105 -0.154031 -0.626433
			-0.934389 -0.243143 -0.260383
			-0.866626 -0.097361 -0.489366
			-0.902455 -0.418477  0.102232
			-0.783907 -0.608893 -0.121404
			-0.821752 -0.562178 -0.093162
			-0.962020 -0.187222 -0.198660
			 0.895597  0.443594  0.033623
			 0.629904  0.773061 -0.074817
			 0.222698  0.953968 -0.200875
			 0.289583  0.672880 -0.680716
			 0.120597  0.496189 -0.859798
			-0.830045  0.551212 -0.084792
			-0.174522  0.124479 -0.976753
			-0.105321  0.990020 -0.093638
			 0.202445  0.976331 -0.076120
			 0.558186  0.586777 -0.586618
			 0.907562  0.409962 -0.090893
			 0.415730  0.563640  0.713778
			 0.903048 -0.027100  0.428683