<?xml version="1.0"?>
<VTKFile type="PolyData" version="0.1" byte_order="LittleEndian" compressor="vtkZLibDataCompressor">
	<PolyData>
		<Piece NumberOfPoints="34" NumberOfVerts="0" NumberOfLines="0" NumberOfStrips="0" NumberOfPolys="64">
		<PointData Normals="Normals">
		<DataArray type="Float32" Name="Normals" NumberOfComponents="3" format="ascii">
			-0.239591  0.405164  0.882291
			-0.344787  0.110590  0.932144
			-0.312371  0.127729  0.941334
			 0.118105  0.278914  0.953026
			-0.703616  0.005124  0.710562
			-0.672334  0.557354  0.487158
			 0.013610  0.706510  0.707573
			-0.646938 -0.208267  0.733550
			-0.162811 -0.163938  0.972943
			 0.586594  0.581855  0.563341
			 0.339985 -0.265789  0.902090
			 0.770720  0.299910  0.562179
			-0.893414 -0.351553 -0.279680
			 0.252013  0.945033 -0.208330
			-0.766359  0.478978 -0.428106
			 0.656931  0.727741  0.197065
			-0.835375 -0.513542  0.196017
			-0.347637 -0.639424  0.685774
			 0.901744  0.431552 -0.024917
			 0.130819 -0.973450  0.187833
			 0.884684 -0.249975  0.393505
			-0.645081 -0.745535 -0.167475
			-0.246361  0.307176 -0.919211
			-0.148275 -0.148802 -0.977687
			-0.476270 -0.709835 -0.518941
			 0.746739  0.546496 -0.379108
			 0.428685  0.455780 -0.780061
			 0.966437 -0.058739 -0.250097
			 0.818148  0.278187 -0.503236
			 0.179706 -0.835194 -0.519766
			 0.698851 -0.699945 -0.147254
			 0.571875  0.197096 -0.796312
			 0.157296 -0.426288 -0.890807
			 0.618061 -0.295042 -0.728663
		</DataArray>
	</PointData>
	<Points>
		<DataArray type="Float32" NumberOfComponents="3" format="ascii">
			 0.006563 -0.008432  0.026074
			 0.004025 -0.010821  0.025805
			 0.006025 -0.011087  0.026877
			 0.008373 -0.009841  0.026966
			 0.002161 -0.009758  0.025320
			 0.001440 -0.007377  0.023499
			 0.007672 -0.006837  0.025205
			 0.002976 -0.012780  0.025374
			 0.006856 -0.013298  0.026956
			 0.008917 -0.007862  0.025656
			 0.009679 -0.013579  0.026831
			 0.010479 -0.010566  0.026051
			 0.003715 -0.015198  0.020397
			 0.006499 -0.005626  0.022297
			 0.001767 -0.006394  0.020584
			 0.008430 -0.007049  0.025186
			 0.004647 -0.017995  0.024424
			 0.005401 -0.018710  0.024596
			 0.011129 -0.011699  0.023587
			 0.007194 -0.019645  0.023202
			 0.012078 -0.014729  0.024456
			 0.005385 -0.018720  0.022524
			 0.003537 -0.009196  0.018351
			 0.005959 -0.014570  0.017626
			 0.006032 -0.018178  0.020312
			 0.009118 -0.008541  0.021620
			 0.007386 -0.008732  0.019803
			 0.012292 -0.014974  0.022050
			 0.011253 -0.012746  0.021015
			 0.007783 -0.019071  0.020933
			 0.010719 -0.017318  0.021035
			 0.010038 -0.012272  0.020017
			 0.006931 -0.016271  0.018140
			 0.010497 -0.016841  0.020255
		</DataArray>
	</Points>
			<Polys>
				<DataArray type="Int32" Name="connectivity" format="ascii">
					0 1 2 
					2 3 0 
					4 1 0 
					5 0 6 
					0 5 4 
					6 0 3 
					1 7 2 
					7 1 4 
					7 8 2 
					8 3 2 
					3 9 6 
					3 8 10 
					3 10 11 
					9 3 11 
					7 4 12 
					12 4 5 
					13 5 6 
					5 13 14 
					5 14 12 
					15 6 9 
					6 15 13 
					7 12 16 
					7 16 17 
					8 7 17 
					17 10 8 
					11 18 9 
					9 18 15 
					19 10 17 
					19 20 10 
					10 20 11 
					18 11 20 
					12 21 16 
					22 23 12 
					12 24 21 
					23 24 12 
					12 14 22 
					25 13 15 
					13 22 14 
					22 13 26 
					26 13 25 
					15 18 25 
					21 17 16 
					21 19 17 
					27 18 20 
					18 27 28 
					25 18 28 
					24 19 21 
					24 29 19 
					29 30 19 
					30 20 19 
					20 30 27 
					26 23 22 
					31 23 26 
					31 32 23 
					23 32 24 
					32 29 24 
					25 31 26 
					31 25 28 
					30 33 27 
					33 28 27 
					33 31 28 
					32 33 29 
					30 29 33 
					32 31 33 
				</DataArray>
				<DataArray type="Int32" Name="offsets" format="ascii">
					3 6 9 12 15 18 21 24 27 30 33 36 39 42 45 48 51 54 57 60 63 66 69 72 75 78 81 84 87 90 93 96 99 102 105 108 111 114 117 120 123 126 129 132 135 138 141 144 147 150 153 156 159 162 165 168 171 174 177 180 183 186 189 192 
				</DataArray>
			</Polys>
		</Piece>
	</PolyData>
</VTKFile>
