<?xml version="1.0"?>
<VTKFile type="PolyData" version="0.1" byte_order="LittleEndian" compressor="vtkZLibDataCompressor">
	<PolyData>
		<Piece NumberOfPoints="95" NumberOfVerts="0" NumberOfLines="0" NumberOfStrips="0" NumberOfPolys="186">
		<PointData Normals="Normals">
		<DataArray type="Float32" Name="Normals" NumberOfComponents="3" format="ascii">
			 0.664680  0.625999  0.407831
			 0.345945  0.483602  0.804022
			 0.658166  0.281759  0.698161
			 0.400763  0.905028  0.142525
			 0.516228  0.848623 -0.115530
			-0.031184  0.969989  0.241141
			 0.273056  0.558184  0.783499
			 0.093786  0.822724  0.560650
			 0.300531  0.344259  0.889475
			 0.280302  0.833140  0.476769
			 0.333000 -0.006487  0.942905
			 0.584341 -0.431749  0.687123
			 0.539611  0.097918  0.836201
			 0.203616  0.671418 -0.712558
			-0.087152  0.373715 -0.923440
			 0.332646  0.533672 -0.777522
			 0.104208  0.952248 -0.286993
			-0.690790  0.580460  0.431133
			-0.795256  0.599777 -0.088518
			-0.383094 -0.135764  0.913678
			-0.750344  0.457835  0.476833
			 0.336816 -0.298980  0.892842
			-0.033588  0.794573 -0.606238
			 0.226984  0.505412  0.832489
			 0.140601  0.990005  0.011059
			 0.439129 -0.722570  0.533909
			 0.169630 -0.910083  0.378119
			 0.267317 -0.938018 -0.220597
			 0.161030 -0.660629  0.733239
			 0.548683 -0.324541  0.770468
			 0.283077 -0.344439  0.895114
			 0.082433  0.140334 -0.986667
			-0.124412  0.080934 -0.988924
			 0.039418 -0.695225 -0.717710
			-0.176596 -0.731627 -0.658435
			-0.460834 -0.880698 -0.109559
			 0.075029 -0.261805 -0.962200
			-0.092740  0.339147 -0.936151
			 0.352812 -0.016814 -0.935543
			-0.965410  0.162397 -0.203990
			 0.101669 -0.525004  0.845005
			-0.189930 -0.809859  0.555027
			-0.920716 -0.054482  0.386411
			 0.187602 -0.979198  0.077308
			 0.000759 -0.395423  0.918499
			 0.109358  0.637992 -0.762238
			-0.346909  0.060071 -0.935973
			-0.037540  0.461244  0.886479
			 0.327235  0.744584  0.581818
			 0.283705  0.874159 -0.394155
			 0.083970 -0.986042 -0.143773
			 0.234067 -0.796033 -0.558162
			 0.324368 -0.671264 -0.666476
			 0.210696 -0.850903 -0.481218
			-0.290812 -0.791291  0.537854
			-0.525707 -0.392738  0.754578
			-0.717395 -0.531916 -0.449899
			-0.552874 -0.733574  0.395220
			 0.173588 -0.375550 -0.910401
			-0.374834 -0.122479 -0.918966
			 0.223500 -0.152260 -0.962738
			-0.876237 -0.328215 -0.352823
			-0.143181 -0.648784 -0.747381
			-0.588936 -0.805333  0.067767
			-0.513485 -0.315038  0.798176
			-0.209648 -0.003660  0.977770
			 0.784560  0.509812 -0.352927
			 0.351121  0.160540 -0.922465
			-0.187094 -0.286067 -0.939767
			-0.276081  0.078959  0.957886
			 0.610628 -0.078979  0.787969
			 0.838250  0.405357  0.364724
			-0.372584 -0.493359  0.785988
			 0.250260 -0.847242 -0.468562
			-0.133481 -0.866540 -0.480928
			 0.317144 -0.710386 -0.628309
			 0.469886 -0.857448  0.209735
			-0.268940 -0.469058  0.841223
			 0.208833 -0.973511  0.093090
			-0.781906 -0.342741  0.520723
			-0.493915 -0.722884 -0.483204
			 0.814936 -0.345935 -0.464981
			 0.942047 -0.284828 -0.177261
			 0.995999 -0.066819  0.059348
			-0.104027 -0.968339 -0.226932
			 0.663494 -0.627979 -0.406715
			 0.298853 -0.870752 -0.390485
			 0.685728 -0.611892  0.394163
			 0.356250 -0.625634  0.694023
			 0.902553 -0.393943  0.173802
			 0.784648 -0.553277  0.279663
			 0.355185 -0.709081  0.609137
			 0.791921 -0.564813 -0.232051
			 0.672018 -0.735186 -0.088842
			 0.691931 -0.629379  0.353713
		</DataArray>
	</PointData>
	<Points>
		<DataArray type="Float32" NumberOfComponents="3" format="ascii">
			-0.017121  0.003830 -0.028959
			-0.014654  0.001585 -0.028375
			-0.016806  0.000541 -0.026927
			-0.016406  0.004653 -0.031215
			-0.018974  0.006239 -0.031010
			-0.019436  0.006493 -0.028799
			-0.019067  0.004956 -0.026457
			-0.019121  0.005904 -0.027653
			-0.011225  0.001385 -0.029250
			-0.006872  0.002166 -0.031475
			-0.013114 -0.001366 -0.028101
			-0.016462 -0.003317 -0.026823
			-0.018713 -0.000585 -0.024209
			-0.015474  0.003812 -0.032928
			-0.011339  0.002530 -0.034307
			-0.019242  0.005055 -0.033053
			-0.019780  0.006605 -0.031120
			-0.019770  0.005551 -0.027568
			-0.020976  0.005396 -0.033652
			-0.021344 -0.001683 -0.023938
			-0.019682  0.004565 -0.026568
			-0.011236 -0.001156 -0.028699
			-0.003699  0.001496 -0.035227
			-0.002824  0.000100 -0.031363
			 0.000398  0.000861 -0.034379
			-0.013374 -0.002110 -0.028268
			-0.019965 -0.004470 -0.026792
			-0.017982 -0.004436 -0.030106
			-0.018933 -0.003647 -0.024882
			-0.018672 -0.002772 -0.024688
			-0.019154 -0.002344 -0.024080
			-0.017560  0.003927 -0.033226
			-0.016197  0.002449 -0.033374
			-0.017537 -0.003732 -0.031446
			-0.012136 -0.002611 -0.033010
			-0.001884 -0.003860 -0.036562
			-0.016748  0.000012 -0.032846
			-0.021713  0.003849 -0.034782
			-0.020116  0.002020 -0.033924
			-0.023065 -0.001625 -0.033667
			-0.019460 -0.002869 -0.024430
			-0.021796 -0.004146 -0.025466
			-0.022951 -0.003480 -0.025814
			-0.012095 -0.002777 -0.031623
			-0.000939 -0.001376 -0.031683
			 0.003083 -0.001883 -0.038809
			 0.000083 -0.001204 -0.038203
			 0.001649  0.000058 -0.031871
			 0.006156  0.000446 -0.032630
			 0.005806  0.000109 -0.035299
			-0.021990 -0.005471 -0.029909
			-0.019480 -0.004167 -0.031112
			-0.020216 -0.003685 -0.031943
			-0.020961 -0.004794 -0.030607
			 0.003626 -0.005569 -0.035079
			 0.000438 -0.005253 -0.036101
			-0.000499 -0.004795 -0.036899
			 0.002177 -0.004114 -0.034091
			-0.021426 -0.002398 -0.033499
			-0.022331  0.002144 -0.034863
			-0.021831  0.001553 -0.034786
			-0.023972 -0.004603 -0.031376
			-0.022980 -0.004191 -0.032481
			-0.023829 -0.005086 -0.030555
			 0.002095 -0.002440 -0.031792
			 0.001609 -0.001207 -0.031824
			 0.007457 -0.000986 -0.035383
			 0.006485 -0.003263 -0.039116
			 0.002778 -0.003171 -0.038796
			 0.002166 -0.000989 -0.031525
			 0.006744 -0.003900 -0.031606
			 0.007545 -0.000642 -0.032924
			 0.003470 -0.005285 -0.030928
			-0.021735 -0.004868 -0.030871
			-0.023313 -0.004989 -0.031515
			-0.021120 -0.003990 -0.032487
			 0.005037 -0.005337 -0.035561
			 0.001577 -0.007220 -0.035783
			 0.005359 -0.005979 -0.032300
			-0.000137 -0.006053 -0.036562
			 0.000837 -0.007319 -0.036401
			 0.006813 -0.004863 -0.038458
			 0.007395 -0.003058 -0.036321
			 0.008043 -0.002520 -0.033677
			 0.002970 -0.007879 -0.036705
			 0.006330 -0.005920 -0.038001
			 0.004332 -0.007472 -0.037135
			 0.006358 -0.005255 -0.031992
			 0.005437 -0.005604 -0.031490
			 0.007661 -0.003868 -0.033382
			 0.006215 -0.004470 -0.036139
			 0.003542 -0.007570 -0.035938
			 0.007478 -0.003938 -0.034326
			 0.006835 -0.005146 -0.033396
			 0.005800 -0.006448 -0.036735
		</DataArray>
	</Points>
			<Polys>
				<DataArray type="Int32" Name="connectivity" format="ascii">
					2 1 0 
					4 0 3 
					4 5 0 
					0 6 2 
					1 3 0 
					0 5 7 
					6 0 7 
					9 1 8 
					1 9 3 
					11 10 1 
					2 11 1 
					8 1 10 
					6 12 2 
					11 2 12 
					3 14 13 
					9 14 3 
					13 4 3 
					15 4 13 
					16 4 15 
					4 16 5 
					17 7 5 
					5 16 18 
					5 18 17 
					6 20 19 
					6 19 12 
					20 6 7 
					17 20 7 
					9 8 21 
					10 21 8 
					9 22 14 
					24 9 23 
					22 9 24 
					21 23 9 
					25 21 10 
					10 11 25 
					27 11 26 
					27 25 11 
					26 11 28 
					28 11 29 
					29 11 12 
					29 12 30 
					12 19 30 
					31 15 13 
					32 13 14 
					32 31 13 
					14 34 33 
					35 34 14 
					14 22 35 
					32 14 36 
					33 36 14 
					15 38 37 
					15 31 38 
					15 18 16 
					18 15 37 
					20 17 18 
					18 39 20 
					39 18 37 
					30 19 40 
					19 26 28 
					19 41 26 
					41 19 42 
					40 19 28 
					39 19 20 
					39 42 19 
					25 43 21 
					35 44 21 
					43 35 21 
					23 21 44 
					24 45 22 
					22 45 46 
					22 46 35 
					24 23 47 
					47 23 44 
					48 24 47 
					48 49 24 
					45 24 49 
					27 43 25 
					26 50 27 
					41 50 26 
					52 27 51 
					43 27 33 
					51 27 53 
					27 52 33 
					50 53 27 
					40 28 29 
					40 29 30 
					31 36 38 
					36 31 32 
					36 33 52 
					43 33 34 
					35 43 34 
					55 54 35 
					55 35 56 
					46 56 35 
					35 57 44 
					35 54 57 
					58 38 36 
					52 58 36 
					37 60 59 
					60 37 38 
					39 37 59 
					58 60 38 
					61 42 39 
					58 39 59 
					58 62 39 
					39 62 61 
					41 63 50 
					63 41 42 
					63 42 61 
					44 57 64 
					65 44 64 
					65 47 44 
					45 49 66 
					45 66 67 
					45 67 68 
					45 68 46 
					56 46 68 
					47 65 69 
					48 47 69 
					71 48 70 
					70 48 72 
					48 69 72 
					48 71 66 
					48 66 49 
					50 74 73 
					63 74 50 
					53 50 73 
					51 53 73 
					52 51 73 
					58 52 75 
					52 73 75 
					54 77 76 
					54 72 57 
					54 55 77 
					78 54 76 
					78 72 54 
					56 77 55 
					77 56 79 
					56 68 80 
					80 79 56 
					57 72 64 
					62 58 75 
					58 59 60 
					63 61 74 
					61 62 74 
					75 73 62 
					73 74 62 
					69 65 64 
					69 64 72 
					66 81 67 
					66 82 81 
					66 71 83 
					83 82 66 
					67 81 68 
					80 68 84 
					68 81 85 
					68 85 86 
					68 86 84 
					88 87 70 
					71 70 83 
					72 88 70 
					89 83 70 
					89 70 87 
					88 72 78 
					91 90 76 
					77 91 76 
					92 76 90 
					93 76 92 
					93 78 76 
					80 77 79 
					77 80 84 
					91 77 84 
					87 78 93 
					78 87 88 
					82 90 81 
					90 85 81 
					90 82 92 
					82 83 92 
					92 83 89 
					84 86 91 
					85 94 86 
					94 85 90 
					91 86 94 
					93 89 87 
					93 92 89 
					90 91 94 
				</DataArray>
				<DataArray type="Int32" Name="offsets" format="ascii">
					3 6 9 12 15 18 21 24 27 30 33 36 39 42 45 48 51 54 57 60 63 66 69 72 75 78 81 84 87 90 93 96 99 102 105 108 111 114 117 120 123 126 129 132 135 138 141 144 147 150 153 156 159 162 165 168 171 174 177 180 183 186 189 192 195 198 201 204 207 210 213 216 219 222 225 228 231 234 237 240 243 246 249 252 255 258 261 264 267 270 273 276 279 282 285 288 291 294 297 300 303 306 309 312 315 318 321 324 327 330 333 336 339 342 345 348 351 354 357 360 363 366 369 372 375 378 381 384 387 390 393 396 399 402 405 408 411 414 417 420 423 426 429 432 435 438 441 444 447 450 453 456 459 462 465 468 471 474 477 480 483 486 489 492 495 498 501 504 507 510 513 516 519 522 525 528 531 534 537 540 543 546 549 552 555 558 
				</DataArray>
			</Polys>
		</Piece>
	</PolyData>
</VTKFile>
