<?xml version="1.0"?>
<VTKFile type="PolyData" version="0.1" byte_order="LittleEndian" compressor="vtkZLibDataCompressor">
	<PolyData>
		<Piece NumberOfPoints="87" NumberOfVerts="0" NumberOfLines="0" NumberOfStrips="0" NumberOfPolys="170">
		<PointData Normals="Normals">
		<DataArray type="Float32" Name="Normals" NumberOfComponents="3" format="ascii">
			 0.577040  0.793570  0.193059
			 0.869463  0.417095  0.264699
			 0.628219  0.072080  0.774691
			 0.752529  0.489401 -0.440666
			 0.172716  0.962219 -0.210484
			 0.238904  0.677272  0.695865
			 0.992504  0.009920  0.121809
			 0.686411 -0.556698  0.467896
			 0.289920 -0.598429  0.746879
			-0.092409 -0.110453  0.989576
			 0.901562 -0.372402  0.220235
			-0.164184  0.465293 -0.869796
			-0.131037 -0.122317 -0.983803
			 0.541330 -0.099658 -0.834883
			 0.957215 -0.277920 -0.080618
			 0.913813 -0.387856 -0.120475
			 0.945108 -0.269579 -0.184656
			-0.006062  0.652485  0.757777
			 0.189304  0.978062 -0.086945
			-0.311897  0.223798  0.923382
			 0.201608 -0.948558  0.244114
			 0.667597 -0.743362 -0.041574
			-0.413419 -0.833845  0.365770
			-0.824467 -0.353603  0.441837
			-0.146825  0.318359 -0.936531
			-0.445904 -0.894236  0.038882
			-0.753706 -0.526233 -0.393709
			-0.541532 -0.694390 -0.473883
			-0.174053 -0.915295 -0.363236
			 0.502880 -0.686679 -0.524960
			 0.739954 -0.473413 -0.477857
			 0.838043 -0.487439  0.245126
			 0.762933 -0.645967 -0.025700
			-0.222440  0.142462  0.964482
			 0.278755  0.577432  0.767378
			 0.035120 -0.346228  0.937493
			 0.032269  0.659744 -0.750797
			 0.270589  0.962414 -0.023247
			-0.566358 -0.175571  0.805241
			 0.386892 -0.847419  0.363586
			-0.330094 -0.702049  0.631003
			 0.673550 -0.602477  0.428196
			-0.527382 -0.641411  0.557189
			-0.206594 -0.647857 -0.733213
			-0.613333 -0.554057  0.562888
			 0.152714 -0.913436  0.377243
			-0.532948 -0.473848  0.701024
			-0.887790 -0.407160  0.214594
			 0.393988 -0.917789 -0.049365
			 0.297552 -0.615277  0.729998
			 0.726334 -0.532637  0.434438
			 0.649587  0.667508  0.363964
			 0.288270 -0.281508  0.915234
			 0.366686  0.088648  0.926112
			 0.545710 -0.300133  0.782381
			 0.268194  0.184403 -0.945551
			 0.402673  0.912476 -0.072400
			 0.256864 -0.950001 -0.177537
			 0.391775 -0.661940  0.639021
			 0.322455  0.923126 -0.209430
			-0.144992  0.984240  0.101232
			 0.120295  0.902355  0.413865
			 0.231017  0.659781  0.715067
			 0.506532 -0.014052  0.862107
			 0.160333 -0.837888  0.521764
			 0.163622 -0.532645  0.830372
			 0.483995 -0.289062  0.825949
			-0.813229  0.555172 -0.174476
			-0.192463 -0.149153 -0.969903
			 0.201099 -0.538957 -0.817976
			 0.440107 -0.675311 -0.591828
			 0.274782 -0.881795 -0.383317
			 0.266996 -0.940095 -0.211979
			 0.072951 -0.994505  0.075090
			-0.671130  0.658955  0.339652
			-0.731850  0.547042  0.406374
			-0.402213 -0.013865  0.915441
			 0.109201 -0.379107  0.918887
			-0.193452 -0.701841  0.685562
			-0.950086  0.102105 -0.294806
			 0.297694 -0.766258 -0.569409
			-0.195194 -0.740273 -0.643347
			 0.260748 -0.917243 -0.301123
			-0.215121 -0.925793 -0.310854
			-0.602420 -0.769729  0.211205
			-0.913493  0.030647  0.405699
			-0.889301 -0.362982 -0.278188
		</DataArray>
	</PointData>
	<Points>
		<DataArray type="Float32" NumberOfComponents="3" format="ascii">
			-0.006502  0.001389 -0.044320
			-0.005768  0.000668 -0.044347
			-0.006546 -0.002115 -0.042555
			-0.005914 -0.000067 -0.046638
			-0.008553  0.002092 -0.044916
			-0.007721  0.001925 -0.043809
			-0.005358 -0.001234 -0.044816
			-0.006946 -0.003442 -0.042726
			-0.007804 -0.003653 -0.042162
			-0.009634 -0.003213 -0.041627
			-0.005733 -0.002428 -0.044314
			-0.012070 -0.000671 -0.049520
			-0.009684 -0.001499 -0.050010
			-0.006915 -0.002783 -0.049806
			-0.006239 -0.002887 -0.048114
			-0.006028 -0.002146 -0.047197
			-0.005528 -0.001779 -0.045966
			-0.011271  0.001650 -0.043297
			-0.013330  0.002197 -0.044642
			-0.010794  0.000728 -0.042806
			-0.007903 -0.004150 -0.042899
			-0.006528 -0.003599 -0.044110
			-0.009499 -0.003725 -0.042340
			-0.010157 -0.002656 -0.041893
			-0.016078  0.002500 -0.046756
			-0.016146 -0.001608 -0.045636
			-0.012557 -0.003777 -0.047727
			-0.011373 -0.006017 -0.047158
			-0.009849 -0.006592 -0.047353
			-0.007508 -0.005329 -0.048467
			-0.006940 -0.004369 -0.048965
			-0.006457 -0.002910 -0.047289
			-0.006345 -0.002631 -0.046738
			-0.011333  0.000472 -0.043076
			-0.023362  0.003477 -0.041020
			-0.013737  0.000361 -0.042934
			-0.023434  0.004182 -0.045698
			-0.021054  0.004074 -0.044423
			-0.010897 -0.000685 -0.042873
			-0.008844 -0.004240 -0.045911
			-0.009464 -0.004243 -0.045690
			-0.007128 -0.003424 -0.046832
			-0.010811 -0.002674 -0.044906
			-0.024363 -0.000807 -0.043871
			-0.012016 -0.004083 -0.046822
			-0.024300 -0.000744 -0.042556
			-0.011072 -0.005903 -0.046251
			-0.012277 -0.004910 -0.047231
			-0.008745 -0.006433 -0.047513
			-0.009462 -0.006290 -0.046312
			-0.007524 -0.005377 -0.047137
			-0.028870  0.005915 -0.041040
			-0.019425  0.000966 -0.041499
			-0.025169  0.001140 -0.039489
			-0.028333 -0.000404 -0.037941
			-0.027395  0.005243 -0.044752
			-0.028225  0.006311 -0.043277
			-0.029848 -0.001928 -0.040792
			-0.025430  0.000428 -0.039522
			-0.031368  0.008210 -0.043442
			-0.031001  0.008463 -0.041273
			-0.030692  0.008089 -0.040120
			-0.030636  0.007394 -0.038861
			-0.030800  0.000986 -0.035502
			-0.031653 -0.001398 -0.037675
			-0.030629 -0.000355 -0.036046
			-0.030365  0.000483 -0.036008
			-0.032564  0.006713 -0.045586
			-0.033922  0.003529 -0.046177
			-0.033122 -0.000496 -0.044210
			-0.031975 -0.001472 -0.042581
			-0.031274 -0.001804 -0.041744
			-0.032670 -0.002278 -0.041153
			-0.033639 -0.002776 -0.040381
			-0.031309  0.007788 -0.039976
			-0.031224  0.007026 -0.038892
			-0.032849  0.001668 -0.035439
			-0.031104  0.000450 -0.035740
			-0.033348 -0.000851 -0.036465
			-0.034657  0.000230 -0.044461
			-0.032842 -0.001822 -0.043024
			-0.034598 -0.001971 -0.042956
			-0.033005 -0.002377 -0.041808
			-0.034908 -0.002554 -0.041928
			-0.035377 -0.002482 -0.041012
			-0.034431 -0.000264 -0.036874
			-0.035519 -0.002159 -0.041849
		</DataArray>
	</Points>
			<Polys>
				<DataArray type="Int32" Name="connectivity" format="ascii">
					2 1 0 
					4 0 3 
					0 4 5 
					0 5 2 
					3 0 1 
					1 2 6 
					3 1 6 
					8 7 2 
					2 5 9 
					9 8 2 
					10 6 2 
					10 2 7 
					4 3 11 
					12 11 3 
					12 3 13 
					3 14 13 
					3 15 14 
					16 15 3 
					6 16 3 
					5 4 17 
					18 17 4 
					11 18 4 
					5 19 9 
					5 17 19 
					16 6 10 
					20 7 8 
					20 21 7 
					21 10 7 
					8 22 20 
					22 8 9 
					22 9 23 
					23 9 19 
					21 16 10 
					25 24 11 
					24 18 11 
					11 26 25 
					26 11 12 
					28 27 12 
					12 29 28 
					12 13 29 
					27 26 12 
					13 30 29 
					14 30 13 
					30 14 29 
					31 14 15 
					29 14 31 
					15 16 21 
					32 15 21 
					32 31 15 
					17 33 19 
					18 34 17 
					17 34 35 
					33 17 35 
					18 24 36 
					34 18 37 
					36 37 18 
					19 33 38 
					19 38 23 
					20 40 39 
					21 20 39 
					22 40 20 
					41 32 21 
					21 39 41 
					40 22 23 
					40 23 42 
					42 23 38 
					36 24 43 
					43 24 25 
					42 25 40 
					44 25 26 
					25 45 43 
					40 25 44 
					35 45 25 
					42 35 25 
					26 46 44 
					46 26 47 
					27 47 26 
					46 47 27 
					46 27 28 
					29 48 28 
					49 46 28 
					28 48 49 
					29 31 50 
					29 50 48 
					41 31 32 
					41 50 31 
					33 35 38 
					51 34 37 
					35 34 52 
					53 52 34 
					34 54 53 
					34 51 54 
					35 52 45 
					35 42 38 
					37 36 55 
					36 43 55 
					56 51 37 
					55 56 37 
					40 49 39 
					49 41 39 
					46 49 40 
					40 44 46 
					41 49 50 
					55 43 57 
					45 57 43 
					57 45 58 
					58 45 52 
					49 48 50 
					59 51 56 
					59 60 51 
					51 60 61 
					62 51 61 
					51 62 63 
					54 51 63 
					58 52 53 
					53 54 58 
					57 54 64 
					57 58 54 
					64 54 65 
					65 54 66 
					66 54 63 
					67 59 55 
					69 68 55 
					55 59 56 
					67 55 68 
					69 55 70 
					70 55 57 
					70 57 71 
					71 57 72 
					73 72 57 
					64 73 57 
					60 59 67 
					74 61 60 
					60 67 74 
					75 62 61 
					74 75 61 
					62 75 76 
					62 76 63 
					63 76 77 
					77 66 63 
					78 73 64 
					76 64 65 
					76 78 64 
					77 65 66 
					77 76 65 
					79 67 68 
					75 74 67 
					67 79 75 
					69 79 68 
					81 69 80 
					69 70 80 
					69 81 79 
					70 82 80 
					70 71 82 
					71 72 82 
					72 73 82 
					73 83 82 
					84 83 73 
					78 84 73 
					79 76 75 
					78 76 85 
					79 85 76 
					84 78 85 
					79 81 86 
					86 85 79 
					80 82 81 
					86 81 83 
					82 83 81 
					84 86 83 
					84 85 86 
				</DataArray>
				<DataArray type="Int32" Name="offsets" format="ascii">
					3 6 9 12 15 18 21 24 27 30 33 36 39 42 45 48 51 54 57 60 63 66 69 72 75 78 81 84 87 90 93 96 99 102 105 108 111 114 117 120 123 126 129 132 135 138 141 144 147 150 153 156 159 162 165 168 171 174 177 180 183 186 189 192 195 198 201 204 207 210 213 216 219 222 225 228 231 234 237 240 243 246 249 252 255 258 261 264 267 270 273 276 279 282 285 288 291 294 297 300 303 306 309 312 315 318 321 324 327 330 333 336 339 342 345 348 351 354 357 360 363 366 369 372 375 378 381 384 387 390 393 396 399 402 405 408 411 414 417 420 423 426 429 432 435 438 441 444 447 450 453 456 459 462 465 468 471 474 477 480 483 486 489 492 495 498 501 504 507 510 
				</DataArray>
			</Polys>
		</Piece>
	</PolyData>
</VTKFile>
