<?xml version="1.0"?>
<VTKFile type="PolyData" version="0.1" byte_order="LittleEndian" compressor="vtkZLibDataCompressor">
	<PolyData>
		<Piece NumberOfPoints="87" NumberOfVerts="0" NumberOfLines="0" NumberOfStrips="0" NumberOfPolys="170">
		<PointData Normals="Normals">
		<DataArray type="Float32" Name="Normals" NumberOfComponents="3" format="ascii">
			 0.577028  0.793581 -0.193050
			 0.869458  0.417107 -0.264699
			 0.628221  0.072074 -0.774689
			 0.752526  0.489403  0.440670
			 0.172709  0.962217  0.210502
			 0.238898  0.677284 -0.695855
			 0.992504  0.009912 -0.121809
			 0.686419 -0.556697 -0.467886
			 0.289918 -0.598459 -0.746856
			-0.092404 -0.110461 -0.989576
			 0.901558 -0.372405 -0.220244
			-0.164190  0.465297  0.869794
			-0.131044 -0.122312  0.983803
			 0.541334 -0.099656  0.834881
			 0.957216 -0.277913  0.080635
			 0.913817 -0.387839  0.120497
			 0.945106 -0.269587  0.184653
			-0.006069  0.652486 -0.757776
			 0.189308  0.978061  0.086943
			-0.311879  0.223808 -0.923386
			 0.201593 -0.948563 -0.244107
			 0.667607 -0.743353  0.041564
			-0.413431 -0.833857 -0.365729
			-0.824451 -0.353625 -0.441848
			-0.146825  0.318363  0.936530
			-0.445907 -0.894234 -0.038883
			-0.753683 -0.526241  0.393740
			-0.541514 -0.694387  0.473908
			-0.174062 -0.915293  0.363236
			 0.502883 -0.686666  0.524976
			 0.739972 -0.473415  0.477828
			 0.838055 -0.487430 -0.245104
			 0.762945 -0.645953  0.025689
			-0.222459  0.142467 -0.964477
			 0.278759  0.577426 -0.767380
			 0.035108 -0.346230 -0.937492
			 0.032273  0.659750  0.750792
			 0.270589  0.962414  0.023246
			-0.566364 -0.175572 -0.805237
			 0.386893 -0.847419 -0.363585
			-0.330091 -0.702053 -0.631000
			 0.673540 -0.602471 -0.428221
			-0.527380 -0.641420 -0.557180
			-0.206588 -0.647856  0.733215
			-0.613336 -0.554070 -0.562873
			 0.152719 -0.913433 -0.377250
			-0.532958 -0.473861 -0.701008
			-0.887787 -0.407185 -0.214557
			 0.393991 -0.917786  0.049387
			 0.297555 -0.615274 -0.730000
			 0.726336 -0.532638 -0.434434
			 0.649579  0.667513 -0.363969
			 0.288268 -0.281494 -0.915239
			 0.366686  0.088635 -0.926113
			 0.545725 -0.300119 -0.782376
			 0.268191  0.184401  0.945553
			 0.402668  0.912478  0.072410
			 0.256860 -0.950002  0.177539
			 0.391778 -0.661930 -0.639029
			 0.322445  0.923129  0.209432
			-0.144971  0.984244 -0.101224
			 0.120321  0.902356 -0.413855
			 0.231029  0.659777 -0.715067
			 0.506542 -0.014014 -0.862101
			 0.160343 -0.837886 -0.521764
			 0.163649 -0.532640 -0.830369
			 0.484021 -0.289017 -0.825949
			-0.813227  0.555176  0.174472
			-0.192468 -0.149159  0.969901
			 0.201089 -0.538962  0.817975
			 0.440095 -0.675306  0.591843
			 0.274779 -0.881804  0.383299
			 0.267013 -0.940098  0.211942
			 0.072947 -0.994504 -0.075100
			-0.671105  0.658985 -0.339642
			-0.731839  0.547049 -0.406385
			-0.402189 -0.013860 -0.915452
			 0.109231 -0.379080 -0.918894
			-0.193456 -0.701844 -0.685558
			-0.950089  0.102113  0.294795
			 0.297689 -0.766246  0.569427
			-0.195213 -0.740261  0.643355
			 0.260760 -0.917242  0.301118
			-0.215143 -0.925793  0.310840
			-0.602422 -0.769725 -0.211212
			-0.913493  0.030648 -0.405698
			-0.889309 -0.362971  0.278174
		</DataArray>
	</PointData>
	<Points>
		<DataArray type="Float32" NumberOfComponents="3" format="ascii">
			-0.006502  0.001389  0.044320
			-0.005768  0.000668  0.044347
			-0.006546 -0.002115  0.042555
			-0.005914 -0.000067  0.046638
			-0.008553  0.002092  0.044916
			-0.007721  0.001925  0.043809
			-0.005358 -0.001234  0.044816
			-0.006946 -0.003442  0.042726
			-0.007804 -0.003653  0.042162
			-0.009634 -0.003213  0.041627
			-0.005733 -0.002428  0.044314
			-0.012070 -0.000671  0.049520
			-0.009684 -0.001499  0.050010
			-0.006915 -0.002783  0.049806
			-0.006239 -0.002887  0.048114
			-0.006028 -0.002146  0.047197
			-0.005528 -0.001779  0.045966
			-0.011271  0.001650  0.043297
			-0.013330  0.002197  0.044642
			-0.010794  0.000728  0.042806
			-0.007903 -0.004150  0.042899
			-0.006528 -0.003599  0.044110
			-0.009499 -0.003725  0.042340
			-0.010157 -0.002656  0.041893
			-0.016078  0.002500  0.046756
			-0.016146 -0.001608  0.045636
			-0.012557 -0.003777  0.047727
			-0.011373 -0.006017  0.047158
			-0.009849 -0.006592  0.047353
			-0.007508 -0.005329  0.048467
			-0.006940 -0.004369  0.048965
			-0.006457 -0.002910  0.047289
			-0.006345 -0.002631  0.046738
			-0.011333  0.000472  0.043076
			-0.023362  0.003477  0.041020
			-0.013737  0.000361  0.042934
			-0.023434  0.004182  0.045698
			-0.021054  0.004074  0.044423
			-0.010897 -0.000685  0.042873
			-0.008844 -0.004240  0.045911
			-0.009464 -0.004243  0.045690
			-0.007128 -0.003424  0.046832
			-0.010811 -0.002674  0.044906
			-0.024363 -0.000807  0.043871
			-0.012016 -0.004083  0.046822
			-0.024300 -0.000744  0.042556
			-0.011072 -0.005903  0.046251
			-0.012277 -0.004910  0.047231
			-0.008745 -0.006433  0.047513
			-0.009462 -0.006290  0.046312
			-0.007524 -0.005377  0.047137
			-0.028870  0.005915  0.041040
			-0.019425  0.000966  0.041499
			-0.025169  0.001140  0.039489
			-0.028333 -0.000404  0.037941
			-0.027395  0.005243  0.044752
			-0.028225  0.006311  0.043277
			-0.029848 -0.001928  0.040792
			-0.025430  0.000428  0.039522
			-0.031368  0.008210  0.043442
			-0.031001  0.008463  0.041273
			-0.030692  0.008089  0.040120
			-0.030636  0.007394  0.038861
			-0.030800  0.000986  0.035502
			-0.031653 -0.001398  0.037675
			-0.030629 -0.000355  0.036046
			-0.030365  0.000483  0.036008
			-0.032564  0.006713  0.045586
			-0.033922  0.003529  0.046177
			-0.033122 -0.000496  0.044210
			-0.031975 -0.001472  0.042581
			-0.031274 -0.001804  0.041744
			-0.032670 -0.002278  0.041153
			-0.033639 -0.002776  0.040381
			-0.031309  0.007788  0.039976
			-0.031224  0.007026  0.038892
			-0.032849  0.001668  0.035439
			-0.031104  0.000450  0.035740
			-0.033348 -0.000851  0.036465
			-0.034657  0.000230  0.044461
			-0.032842 -0.001822  0.043024
			-0.034598 -0.001971  0.042956
			-0.033005 -0.002377  0.041808
			-0.034908 -0.002554  0.041928
			-0.035377 -0.002482  0.041012
			-0.034431 -0.000264  0.036874
			-0.035519 -0.002159  0.041849
		</DataArray>
	</Points>
			<Polys>
				<DataArray type="Int32" Name="connectivity" format="ascii">
					0 1 2 
					3 0 4 
					5 4 0 
					2 5 0 
					1 0 3 
					6 2 1 
					6 1 3 
					2 7 8 
					9 5 2 
					2 8 9 
					2 6 10 
					7 2 10 
					11 3 4 
					3 11 12 
					13 3 12 
					13 14 3 
					14 15 3 
					3 15 16 
					3 16 6 
					17 4 5 
					4 17 18 
					4 18 11 
					9 19 5 
					19 17 5 
					10 6 16 
					8 7 20 
					7 21 20 
					7 10 21 
					20 22 8 
					9 8 22 
					23 9 22 
					19 9 23 
					10 16 21 
					11 24 25 
					11 18 24 
					25 26 11 
					12 11 26 
					12 27 28 
					28 29 12 
					29 13 12 
					12 26 27 
					29 30 13 
					13 30 14 
					29 14 30 
					15 14 31 
					31 14 29 
					21 16 15 
					21 15 32 
					15 31 32 
					19 33 17 
					17 34 18 
					35 34 17 
					35 17 33 
					36 24 18 
					37 18 34 
					18 37 36 
					38 33 19 
					23 38 19 
					39 40 20 
					39 20 21 
					20 40 22 
					21 32 41 
					41 39 21 
					23 22 40 
					42 23 40 
					38 23 42 
					43 24 36 
					25 24 43 
					40 25 42 
					26 25 44 
					43 45 25 
					44 25 40 
					25 45 35 
					25 35 42 
					44 46 26 
					47 26 46 
					26 47 27 
					27 47 46 
					28 27 46 
					28 48 29 
					28 46 49 
					49 48 28 
					50 31 29 
					48 50 29 
					32 31 41 
					31 50 41 
					38 35 33 
					37 34 51 
					52 34 35 
					34 52 53 
					53 54 34 
					54 51 34 
					45 52 35 
					38 42 35 
					55 36 37 
					55 43 36 
					37 51 56 
					37 56 55 
					39 49 40 
					39 41 49 
					40 49 46 
					46 44 40 
					50 49 41 
					57 43 55 
					43 57 45 
					58 45 57 
					52 45 58 
					50 48 49 
					56 51 59 
					51 60 59 
					61 60 51 
					61 51 62 
					63 62 51 
					63 51 54 
					53 52 58 
					58 54 53 
					64 54 57 
					54 58 57 
					65 54 64 
					66 54 65 
					63 54 66 
					55 59 67 
					55 68 69 
					56 59 55 
					68 55 67 
					70 55 69 
					57 55 70 
					71 57 70 
					72 57 71 
					57 72 73 
					57 73 64 
					67 59 60 
					60 61 74 
					74 67 60 
					61 62 75 
					61 75 74 
					76 75 62 
					63 76 62 
					77 76 63 
					63 66 77 
					64 73 78 
					65 64 76 
					64 78 76 
					66 65 77 
					65 76 77 
					68 67 79 
					67 74 75 
					75 79 67 
					68 79 69 
					80 69 81 
					80 70 69 
					79 81 69 
					80 82 70 
					82 71 70 
					82 72 71 
					82 73 72 
					82 83 73 
					73 83 84 
					73 84 78 
					75 76 79 
					85 76 78 
					76 85 79 
					85 78 84 
					86 81 79 
					79 85 86 
					81 82 80 
					83 81 86 
					81 83 82 
					83 86 84 
					86 85 84 
				</DataArray>
				<DataArray type="Int32" Name="offsets" format="ascii">
					3 6 9 12 15 18 21 24 27 30 33 36 39 42 45 48 51 54 57 60 63 66 69 72 75 78 81 84 87 90 93 96 99 102 105 108 111 114 117 120 123 126 129 132 135 138 141 144 147 150 153 156 159 162 165 168 171 174 177 180 183 186 189 192 195 198 201 204 207 210 213 216 219 222 225 228 231 234 237 240 243 246 249 252 255 258 261 264 267 270 273 276 279 282 285 288 291 294 297 300 303 306 309 312 315 318 321 324 327 330 333 336 339 342 345 348 351 354 357 360 363 366 369 372 375 378 381 384 387 390 393 396 399 402 405 408 411 414 417 420 423 426 429 432 435 438 441 444 447 450 453 456 459 462 465 468 471 474 477 480 483 486 489 492 495 498 501 504 507 510 
				</DataArray>
			</Polys>
		</Piece>
	</PolyData>
</VTKFile>
