<?xml version="1.0"?>
<VTKFile type="PolyData" version="0.1" byte_order="LittleEndian" compressor="vtkZLibDataCompressor">
	<PolyData>
		<Piece NumberOfPoints="95" NumberOfVerts="0" NumberOfLines="0" NumberOfStrips="0" NumberOfPolys="186">
		<PointData Normals="Normals">
		<DataArray type="Float32" Name="Normals" NumberOfComponents="3" format="ascii">
			 0.664681  0.625993 -0.407837
			 0.345942  0.483611 -0.804018
			 0.658164  0.281756 -0.698165
			 0.400770  0.905026 -0.142520
			 0.516224  0.848625  0.115531
			-0.031192  0.969992 -0.241130
			 0.273037  0.558182 -0.783507
			 0.093756  0.822720 -0.560662
			 0.300534  0.344269 -0.889471
			 0.280298  0.833144 -0.476764
			 0.333010 -0.006508 -0.942901
			 0.584343 -0.431750 -0.687121
			 0.539614  0.097927 -0.836198
			 0.203626  0.671417  0.712556
			-0.087150  0.373713  0.923441
			 0.332648  0.533672  0.777521
			 0.104199  0.952249  0.286992
			-0.690802  0.580455 -0.431120
			-0.795245  0.599789  0.088533
			-0.383109 -0.135751 -0.913673
			-0.750359  0.457820 -0.476825
			 0.336821 -0.298997 -0.892834
			-0.033586  0.794574  0.606237
			 0.226983  0.505403 -0.832494
			 0.140600  0.990005 -0.011058
			 0.439127 -0.722588 -0.533885
			 0.169629 -0.910083 -0.378120
			 0.267310 -0.938022  0.220591
			 0.161033 -0.660630 -0.733237
			 0.548704 -0.324528 -0.770458
			 0.283092 -0.344411 -0.895120
			 0.082459  0.140336  0.986664
			-0.124393  0.080945  0.988926
			 0.039425 -0.695235  0.717700
			-0.176595 -0.731628  0.658434
			-0.460838 -0.880696  0.109559
			 0.075039 -0.261802  0.962200
			-0.092747  0.339149  0.936150
			 0.352802 -0.016818  0.935547
			-0.965411  0.162400  0.203979
			 0.101682 -0.524988 -0.845014
			-0.189934 -0.809855 -0.555032
			-0.920717 -0.054468 -0.386410
			 0.187601 -0.979199 -0.077301
			 0.000768 -0.395419 -0.918501
			 0.109363  0.637991  0.762238
			-0.346900  0.060080  0.935976
			-0.037528  0.461241 -0.886481
			 0.327238  0.744577 -0.581825
			 0.283707  0.874157  0.394159
			 0.083970 -0.986042  0.143773
			 0.234068 -0.796057  0.558127
			 0.324371 -0.671276  0.666462
			 0.210719 -0.850909  0.481197
			-0.290800 -0.791308 -0.537835
			-0.525712 -0.392764 -0.754561
			-0.717394 -0.531926  0.449891
			-0.552872 -0.733568 -0.395235
			 0.173574 -0.375547  0.910405
			-0.374854 -0.122474  0.918959
			 0.223467 -0.152265  0.962745
			-0.876235 -0.328213  0.352829
			-0.143198 -0.648785  0.747377
			-0.588935 -0.805335 -0.067760
			-0.513462 -0.315020 -0.798198
			-0.209624 -0.003643 -0.977775
			 0.784559  0.509813  0.352928
			 0.351112  0.160549  0.922466
			-0.187093 -0.286065  0.939768
			-0.276056  0.078969 -0.957892
			 0.610611 -0.078970 -0.787983
			 0.838241  0.405362 -0.364739
			-0.372580 -0.493348 -0.785997
			 0.250266 -0.847252  0.468542
			-0.133485 -0.866538  0.480929
			 0.317143 -0.710382  0.628313
			 0.469889 -0.857450 -0.209723
			-0.268920 -0.469059 -0.841229
			 0.208831 -0.973511 -0.093091
			-0.781880 -0.342735 -0.520766
			-0.493924 -0.722900  0.483172
			 0.814933 -0.345950  0.464975
			 0.942042 -0.284841  0.177262
			 0.995998 -0.066823 -0.059350
			-0.104027 -0.968342  0.226917
			 0.663498 -0.627981  0.406706
			 0.298880 -0.870747  0.390474
			 0.685722 -0.611887 -0.394183
			 0.356250 -0.625628 -0.694028
			 0.902547 -0.393953 -0.173810
			 0.784645 -0.553274 -0.279678
			 0.355186 -0.709058 -0.609163
			 0.791909 -0.564822  0.232068
			 0.672006 -0.735197  0.088841
			 0.691943 -0.629357 -0.353731
		</DataArray>
	</PointData>
	<Points>
		<DataArray type="Float32" NumberOfComponents="3" format="ascii">
			-0.017121  0.003830  0.028959
			-0.014654  0.001585  0.028375
			-0.016806  0.000541  0.026927
			-0.016406  0.004653  0.031215
			-0.018974  0.006239  0.031010
			-0.019436  0.006493  0.028799
			-0.019067  0.004956  0.026457
			-0.019121  0.005904  0.027653
			-0.011225  0.001385  0.029250
			-0.006872  0.002166  0.031475
			-0.013114 -0.001366  0.028101
			-0.016462 -0.003317  0.026823
			-0.018713 -0.000585  0.024209
			-0.015474  0.003812  0.032928
			-0.011339  0.002530  0.034307
			-0.019242  0.005055  0.033053
			-0.019780  0.006605  0.031120
			-0.019770  0.005551  0.027568
			-0.020976  0.005396  0.033652
			-0.021344 -0.001683  0.023938
			-0.019682  0.004565  0.026568
			-0.011236 -0.001156  0.028699
			-0.003699  0.001496  0.035227
			-0.002824  0.000100  0.031363
			 0.000398  0.000861  0.034379
			-0.013374 -0.002110  0.028268
			-0.019965 -0.004470  0.026792
			-0.017982 -0.004436  0.030106
			-0.018933 -0.003647  0.024882
			-0.018672 -0.002772  0.024688
			-0.019154 -0.002344  0.024080
			-0.017560  0.003927  0.033226
			-0.016197  0.002449  0.033374
			-0.017537 -0.003732  0.031446
			-0.012136 -0.002611  0.033010
			-0.001884 -0.003860  0.036562
			-0.016748  0.000012  0.032846
			-0.021713  0.003849  0.034782
			-0.020116  0.002020  0.033924
			-0.023065 -0.001625  0.033667
			-0.019460 -0.002869  0.024430
			-0.021796 -0.004146  0.025466
			-0.022951 -0.003480  0.025814
			-0.012095 -0.002777  0.031623
			-0.000939 -0.001376  0.031683
			 0.003083 -0.001883  0.038809
			 0.000083 -0.001204  0.038203
			 0.001649  0.000058  0.031871
			 0.006156  0.000446  0.032630
			 0.005806  0.000109  0.035299
			-0.021990 -0.005471  0.029909
			-0.019480 -0.004167  0.031112
			-0.020216 -0.003685  0.031943
			-0.020961 -0.004794  0.030607
			 0.003626 -0.005569  0.035079
			 0.000438 -0.005253  0.036101
			-0.000499 -0.004795  0.036899
			 0.002177 -0.004114  0.034091
			-0.021426 -0.002398  0.033499
			-0.022331  0.002144  0.034863
			-0.021831  0.001553  0.034786
			-0.023972 -0.004603  0.031376
			-0.022980 -0.004191  0.032481
			-0.023829 -0.005086  0.030555
			 0.002095 -0.002440  0.031792
			 0.001609 -0.001207  0.031824
			 0.007457 -0.000986  0.035383
			 0.006485 -0.003263  0.039116
			 0.002778 -0.003171  0.038796
			 0.002166 -0.000989  0.031525
			 0.006744 -0.003900  0.031606
			 0.007545 -0.000642  0.032924
			 0.003470 -0.005285  0.030928
			-0.021735 -0.004868  0.030871
			-0.023313 -0.004989  0.031515
			-0.021120 -0.003990  0.032487
			 0.005037 -0.005337  0.035561
			 0.001577 -0.007220  0.035783
			 0.005359 -0.005979  0.032300
			-0.000137 -0.006053  0.036562
			 0.000837 -0.007319  0.036401
			 0.006813 -0.004863  0.038458
			 0.007395 -0.003058  0.036321
			 0.008043 -0.002520  0.033677
			 0.002970 -0.007879  0.036705
			 0.006330 -0.005920  0.038001
			 0.004332 -0.007472  0.037135
			 0.006358 -0.005255  0.031992
			 0.005437 -0.005604  0.031490
			 0.007661 -0.003868  0.033382
			 0.006215 -0.004470  0.036139
			 0.003542 -0.007570  0.035938
			 0.007478 -0.003938  0.034326
			 0.006835 -0.005146  0.033396
			 0.005800 -0.006448  0.036735
		</DataArray>
	</Points>
			<Polys>
				<DataArray type="Int32" Name="connectivity" format="ascii">
					0 1 2 
					3 0 4 
					0 5 4 
					2 6 0 
					0 3 1 
					7 5 0 
					7 0 6 
					8 1 9 
					3 9 1 
					1 10 11 
					1 11 2 
					10 1 8 
					2 12 6 
					12 2 11 
					13 14 3 
					3 14 9 
					3 4 13 
					13 4 15 
					15 4 16 
					5 16 4 
					5 7 17 
					18 16 5 
					17 18 5 
					19 20 6 
					12 19 6 
					7 6 20 
					7 20 17 
					21 8 9 
					8 21 10 
					14 22 9 
					23 9 24 
					24 9 22 
					9 23 21 
					10 21 25 
					25 11 10 
					26 11 27 
					11 25 27 
					28 11 26 
					29 11 28 
					12 11 29 
					30 12 29 
					30 19 12 
					13 15 31 
					14 13 32 
					13 31 32 
					33 34 14 
					14 34 35 
					35 22 14 
					36 14 32 
					14 36 33 
					37 38 15 
					38 31 15 
					16 18 15 
					37 15 18 
					18 17 20 
					20 39 18 
					37 18 39 
					40 19 30 
					28 26 19 
					26 41 19 
					42 19 41 
					28 19 40 
					20 19 39 
					19 42 39 
					21 43 25 
					21 44 35 
					21 35 43 
					44 21 23 
					22 45 24 
					46 45 22 
					35 46 22 
					47 23 24 
					44 23 47 
					47 24 48 
					24 49 48 
					49 24 45 
					25 43 27 
					27 50 26 
					26 50 41 
					51 27 52 
					33 27 43 
					53 27 51 
					33 52 27 
					27 53 50 
					29 28 40 
					30 29 40 
					38 36 31 
					32 31 36 
					52 33 36 
					34 33 43 
					34 43 35 
					35 54 55 
					56 35 55 
					35 56 46 
					44 57 35 
					57 54 35 
					36 38 58 
					36 58 52 
					59 60 37 
					38 37 60 
					59 37 39 
					38 60 58 
					39 42 61 
					59 39 58 
					39 62 58 
					61 62 39 
					50 63 41 
					42 41 63 
					61 42 63 
					64 57 44 
					64 44 65 
					44 47 65 
					66 49 45 
					67 66 45 
					68 67 45 
					46 68 45 
					68 46 56 
					69 65 47 
					69 47 48 
					70 48 71 
					72 48 70 
					72 69 48 
					66 71 48 
					49 66 48 
					73 74 50 
					50 74 63 
					73 50 53 
					73 53 51 
					73 51 52 
					75 52 58 
					75 73 52 
					76 77 54 
					57 72 54 
					77 55 54 
					76 54 78 
					54 72 78 
					55 77 56 
					79 56 77 
					80 68 56 
					56 79 80 
					64 72 57 
					75 58 62 
					60 59 58 
					74 61 63 
					74 62 61 
					62 73 75 
					62 74 73 
					64 65 69 
					72 64 69 
					67 81 66 
					81 82 66 
					83 71 66 
					66 82 83 
					68 81 67 
					84 68 80 
					85 81 68 
					86 85 68 
					84 86 68 
					70 87 88 
					83 70 71 
					70 88 72 
					70 83 89 
					87 70 89 
					78 72 88 
					76 90 91 
					76 91 77 
					90 76 92 
					92 76 93 
					76 78 93 
					79 77 80 
					84 80 77 
					84 77 91 
					93 78 87 
					88 87 78 
					81 90 82 
					81 85 90 
					92 82 90 
					92 83 82 
					89 83 92 
					91 86 84 
					86 94 85 
					90 85 94 
					94 86 91 
					87 89 93 
					89 92 93 
					94 91 90 
				</DataArray>
				<DataArray type="Int32" Name="offsets" format="ascii">
					3 6 9 12 15 18 21 24 27 30 33 36 39 42 45 48 51 54 57 60 63 66 69 72 75 78 81 84 87 90 93 96 99 102 105 108 111 114 117 120 123 126 129 132 135 138 141 144 147 150 153 156 159 162 165 168 171 174 177 180 183 186 189 192 195 198 201 204 207 210 213 216 219 222 225 228 231 234 237 240 243 246 249 252 255 258 261 264 267 270 273 276 279 282 285 288 291 294 297 300 303 306 309 312 315 318 321 324 327 330 333 336 339 342 345 348 351 354 357 360 363 366 369 372 375 378 381 384 387 390 393 396 399 402 405 408 411 414 417 420 423 426 429 432 435 438 441 444 447 450 453 456 459 462 465 468 471 474 477 480 483 486 489 492 495 498 501 504 507 510 513 516 519 522 525 528 531 534 537 540 543 546 549 552 555 558 
				</DataArray>
			</Polys>
		</Piece>
	</PolyData>
</VTKFile>
