<?xml version="1.0"?>
<VTKFile type="PolyData" version="0.1" byte_order="LittleEndian" compressor="vtkZLibDataCompressor">
	<PolyData>
		<Piece NumberOfPoints="103" NumberOfVerts="0" NumberOfLines="0" NumberOfStrips="0" NumberOfPolys="202">
		<PointData Normals="Normals">
		<DataArray type="Float32" Name="Normals" NumberOfComponents="3" format="ascii">
			 0.392577  0.885251  0.249427
			 0.884435  0.212412  0.415519
			 0.503952 -0.008762  0.863687
			 0.141315  0.574253  0.806389
			 0.265576  0.899622 -0.346627
			 0.841303  0.515068 -0.164054
			 0.010346  0.975824 -0.218312
			-0.217602  0.630288 -0.745242
			 0.998583 -0.053140  0.003034
			 0.901531 -0.247654  0.354837
			 0.632805 -0.450939  0.629453
			 0.215691 -0.339947  0.915376
			-0.061312 -0.057251  0.996475
			-0.188636  0.310526  0.931660
			-0.054262  0.704428  0.707699
			 0.555393  0.376823 -0.741312
			 0.945307 -0.315229 -0.083818
			 0.124645  0.775274  0.619205
			 0.127454  0.960555 -0.247163
			-0.363042 -0.747735 -0.555961
			-0.804188 -0.438628 -0.401108
			-0.314594 -0.137689 -0.939187
			 0.918601 -0.391361  0.054859
			 0.678130 -0.673448  0.294291
			 0.184993 -0.860878  0.473990
			-0.303794 -0.719243  0.624819
			-0.363277 -0.117091  0.924294
			 0.031107  0.252751  0.967031
			-0.800242 -0.460036  0.384682
			 0.022143  0.122373  0.992237
			 0.718471 -0.286893 -0.633633
			 0.847383 -0.517759  0.117761
			 0.407494 -0.846424  0.342806
			 0.393238 -0.888634  0.235996
			 0.560928 -0.791358 -0.243132
			 0.235196  0.628114  0.741725
			 0.175378  0.070255  0.981991
			 0.275588  0.916619  0.289589
			-0.005903  0.652678 -0.757612
			 0.129799 -0.686358 -0.715588
			-0.469774 -0.741056  0.479738
			-0.189206 -0.836984  0.513477
			 0.485254 -0.585537  0.649365
			 0.048020 -0.631226  0.774111
			-0.590448 -0.805766  0.045961
			-0.502180 -0.600366  0.622395
			-0.771342 -0.580071 -0.261820
			 0.422451 -0.729598 -0.537794
			-0.067064 -0.843204 -0.533394
			-0.390316 -0.892136 -0.227478
			 0.175496 -0.979282 -0.101038
			-0.481805 -0.869118 -0.111796
			-0.231412 -0.259717  0.937547
			-0.539868 -0.497941  0.678673
			-0.005548 -0.812091  0.583504
			-0.219521 -0.933996 -0.281890
			 0.311795  0.813149  0.491500
			 0.258030  0.205953  0.943930
			 0.245860  0.917044 -0.313981
			 0.141537  0.544239 -0.826904
			 0.312125 -0.027419 -0.949645
			 0.324526 -0.448712 -0.832671
			 0.191354 -0.775349 -0.601845
			 0.210593 -0.677169 -0.705048
			 0.051222 -0.957526 -0.283760
			 0.223472 -0.968349  0.111179
			 0.296496  0.149688  0.943230
			 0.298469 -0.539316  0.787435
			 0.661936  0.323306  0.676250
			 0.191544 -0.850141  0.490481
			 0.386927 -0.604210  0.696576
			 0.527418  0.833594  0.164167
			-0.493108  0.857853  0.144679
			-0.058462  0.906729 -0.417643
			-0.352842  0.686424 -0.635865
			 0.218709  0.028983 -0.975360
			 0.243795 -0.340208 -0.908197
			 0.218567 -0.781236 -0.584721
			 0.167943 -0.792119 -0.586807
			-0.132862 -0.704459 -0.697198
			-0.450941 -0.882890  0.130986
			-0.629031 -0.769746  0.108674
			-0.523411 -0.822549 -0.222386
			-0.045673 -0.983118  0.177178
			 0.205666 -0.879930  0.428282
			-0.356275 -0.198242  0.913109
			 0.245003  0.555320  0.794728
			-0.755448  0.390937  0.525800
			 0.034865 -0.813007  0.581210
			-0.023912 -0.761671  0.647522
			 0.480707  0.793187  0.373865
			-0.394953  0.768914  0.502776
			-0.937728  0.269961 -0.218605
			-0.632070  0.531787 -0.563639
			-0.510866  0.177504 -0.841135
			-0.075339 -0.507062 -0.858611
			-0.669869 -0.269791 -0.691728
			-0.944813 -0.292656 -0.147241
			-0.938895 -0.344159 -0.005437
			-0.891895 -0.313492  0.325954
			-0.525284 -0.794569  0.304527
			 0.000998 -0.864765  0.502177
			-0.648461 -0.336710  0.682733
		</DataArray>
	</PointData>
	<Points>
		<DataArray type="Float32" NumberOfComponents="3" format="ascii">
			 0.020884 -0.000023 -0.018418
			 0.021644 -0.000653 -0.018681
			 0.021139 -0.002866 -0.018304
			 0.019622  0.000260 -0.017757
			 0.019707 -0.000627 -0.025341
			 0.021616 -0.000518 -0.020782
			 0.011755  0.001261 -0.021267
			 0.017538 -0.000546 -0.025261
			 0.021991 -0.002211 -0.020123
			 0.021673 -0.002524 -0.019061
			 0.020797 -0.003826 -0.018193
			 0.019049 -0.004381 -0.017585
			 0.017717 -0.003891 -0.017406
			 0.017470 -0.000081 -0.017945
			 0.017167  0.000458 -0.018379
			 0.020366 -0.001842 -0.026446
			 0.021017 -0.002260 -0.023723
			 0.010950  0.000426 -0.017732
			 0.004900  0.002078 -0.020571
			 0.011069 -0.002483 -0.022812
			 0.014516 -0.003464 -0.023919
			 0.018181 -0.002541 -0.026465
			 0.021788 -0.002909 -0.019798
			 0.020379 -0.004971 -0.019091
			 0.018456 -0.005388 -0.018304
			 0.017517 -0.005200 -0.018065
			 0.016301 -0.001237 -0.017618
			 0.017024 -0.001091 -0.017778
			 0.016961 -0.004607 -0.018118
			 0.015792 -0.000235 -0.017744
			 0.020328 -0.003577 -0.026288
			 0.020087 -0.005087 -0.024464
			 0.018502 -0.006152 -0.023662
			 0.018888 -0.004489 -0.022577
			 0.020865 -0.004603 -0.020580
			 0.002981  0.001540 -0.016315
			 0.011062 -0.000325 -0.017458
			 0.001185  0.002768 -0.016986
			 0.000745  0.002919 -0.018870
			-0.001534 -0.003837 -0.018011
			 0.015427 -0.004015 -0.022902
			 0.018228 -0.004574 -0.022312
			-0.002864 -0.004225 -0.014395
			 0.011225 -0.001575 -0.017829
			 0.016499 -0.003389 -0.020043
			 0.016299 -0.005392 -0.023079
			 0.014962 -0.004645 -0.023876
			 0.019764 -0.005330 -0.025617
			 0.018074 -0.006276 -0.024763
			 0.017045 -0.006133 -0.024397
			 0.019458 -0.005549 -0.019644
			 0.017726 -0.005391 -0.018963
			 0.015706 -0.001378 -0.018024
			 0.016176 -0.002486 -0.018282
			 0.017527 -0.006110 -0.023380
			 0.018278 -0.004706 -0.021334
			-0.002595  0.003477 -0.016652
			 0.000664 -0.001389 -0.015113
			-0.003310  0.003648 -0.018017
			-0.003707  0.003234 -0.018581
			-0.006276 -0.000796 -0.019372
			-0.006599 -0.003571 -0.018959
			-0.007350 -0.004885 -0.017984
			-0.005824 -0.004144 -0.018343
			-0.008412 -0.005706 -0.017473
			-0.005751 -0.005273 -0.014706
			-0.005803  0.000645 -0.011412
			-0.005758 -0.004052 -0.011649
			-0.003515  0.000516 -0.013689
			-0.005422 -0.005018 -0.012666
			-0.005210 -0.004271 -0.012306
			-0.005164  0.004649 -0.016074
			-0.006016  0.004966 -0.016068
			-0.007255  0.004459 -0.018549
			-0.007754  0.003958 -0.019364
			-0.007777  0.000627 -0.020323
			-0.007521 -0.003769 -0.019483
			-0.007692 -0.004743 -0.018606
			-0.008159 -0.004940 -0.018209
			-0.009824 -0.005016 -0.018754
			-0.010381 -0.005179 -0.016391
			-0.010163 -0.005423 -0.017199
			-0.010400 -0.005358 -0.017894
			-0.007963 -0.005627 -0.014071
			-0.007801 -0.004911 -0.013037
			-0.008146 -0.003650 -0.011294
			-0.005594  0.002841 -0.012282
			-0.006463  0.002457 -0.012357
			-0.006985 -0.004652 -0.012304
			-0.008369 -0.004622 -0.012269
			-0.005386  0.004460 -0.014190
			-0.006236  0.004335 -0.013859
			-0.009792 -0.001292 -0.019609
			-0.008586  0.002765 -0.020063
			-0.008906  0.001991 -0.020239
			-0.009495 -0.004070 -0.019455
			-0.010620 -0.003948 -0.019048
			-0.010567 -0.004758 -0.018517
			-0.010827 -0.004752 -0.016934
			-0.010464 -0.004728 -0.014267
			-0.009699 -0.004940 -0.013317
			-0.008412 -0.005516 -0.013200
			-0.009391 -0.004662 -0.012746
		</DataArray>
	</Points>
			<Polys>
				<DataArray type="Int32" Name="connectivity" format="ascii">
					2 1 0 
					0 3 2 
					0 5 4 
					5 0 1 
					0 6 3 
					0 4 7 
					0 7 6 
					1 9 8 
					1 2 9 
					5 1 8 
					2 11 10 
					2 10 9 
					2 12 11 
					2 3 12 
					3 13 12 
					3 14 13 
					14 3 6 
					5 15 4 
					4 15 7 
					5 8 16 
					5 16 15 
					17 14 6 
					6 18 17 
					18 6 19 
					19 6 7 
					7 21 20 
					7 20 19 
					7 15 21 
					16 8 22 
					22 8 9 
					10 23 9 
					22 9 23 
					24 23 10 
					10 11 24 
					25 11 12 
					25 24 11 
					27 26 12 
					27 12 13 
					26 28 12 
					28 25 12 
					13 14 27 
					29 14 17 
					29 27 14 
					15 30 21 
					15 16 30 
					16 32 31 
					16 33 32 
					34 33 16 
					34 16 22 
					30 16 31 
					18 35 17 
					36 29 17 
					35 36 17 
					37 35 18 
					38 37 18 
					18 19 38 
					38 19 39 
					40 19 20 
					41 19 40 
					42 39 19 
					43 42 19 
					44 19 41 
					44 43 19 
					20 45 40 
					46 45 20 
					46 20 21 
					21 30 47 
					21 47 48 
					46 21 49 
					21 48 49 
					34 22 23 
					23 50 34 
					50 23 24 
					51 24 25 
					51 50 24 
					25 28 51 
					29 52 26 
					29 26 27 
					26 52 53 
					26 53 28 
					44 28 53 
					28 44 51 
					29 36 43 
					52 29 43 
					47 30 31 
					31 32 47 
					32 49 48 
					32 54 49 
					32 48 47 
					54 32 33 
					41 54 33 
					33 55 41 
					55 33 34 
					50 55 34 
					57 35 56 
					56 35 37 
					35 57 36 
					43 36 42 
					42 36 57 
					37 38 56 
					56 38 58 
					59 58 38 
					60 59 38 
					39 60 38 
					60 39 61 
					63 39 62 
					63 61 39 
					64 62 39 
					64 39 65 
					65 39 42 
					41 40 45 
					45 54 41 
					41 55 44 
					67 42 66 
					68 66 42 
					65 42 69 
					69 42 70 
					42 57 68 
					70 42 67 
					43 44 53 
					52 43 53 
					55 51 44 
					49 54 45 
					45 46 49 
					51 55 50 
					71 68 56 
					71 56 58 
					56 68 57 
					72 71 58 
					59 73 58 
					58 73 72 
					73 59 74 
					60 74 59 
					75 74 60 
					60 61 76 
					60 76 75 
					61 77 76 
					61 63 77 
					63 62 77 
					62 64 78 
					77 62 78 
					64 79 78 
					81 64 80 
					82 64 81 
					82 79 64 
					64 65 83 
					80 64 83 
					84 65 69 
					84 83 65 
					66 85 67 
					87 66 86 
					87 85 66 
					86 66 68 
					88 70 67 
					67 89 88 
					67 85 89 
					71 90 68 
					90 86 68 
					69 88 84 
					88 69 70 
					71 72 90 
					90 72 91 
					73 74 72 
					91 72 87 
					87 72 92 
					92 72 74 
					75 93 74 
					92 74 93 
					75 94 93 
					75 92 94 
					76 92 75 
					95 92 76 
					76 77 95 
					77 78 95 
					78 79 95 
					97 96 79 
					97 79 82 
					96 95 79 
					80 98 81 
					83 99 80 
					80 99 98 
					97 81 98 
					97 82 81 
					83 101 100 
					101 83 84 
					100 99 83 
					84 88 89 
					89 101 84 
					85 102 89 
					87 102 85 
					87 86 91 
					86 90 91 
					102 87 99 
					92 99 87 
					102 101 89 
					94 92 93 
					92 95 96 
					92 96 97 
					97 98 92 
					92 98 99 
					99 100 102 
					101 102 100 
				</DataArray>
				<DataArray type="Int32" Name="offsets" format="ascii">
					3 6 9 12 15 18 21 24 27 30 33 36 39 42 45 48 51 54 57 60 63 66 69 72 75 78 81 84 87 90 93 96 99 102 105 108 111 114 117 120 123 126 129 132 135 138 141 144 147 150 153 156 159 162 165 168 171 174 177 180 183 186 189 192 195 198 201 204 207 210 213 216 219 222 225 228 231 234 237 240 243 246 249 252 255 258 261 264 267 270 273 276 279 282 285 288 291 294 297 300 303 306 309 312 315 318 321 324 327 330 333 336 339 342 345 348 351 354 357 360 363 366 369 372 375 378 381 384 387 390 393 396 399 402 405 408 411 414 417 420 423 426 429 432 435 438 441 444 447 450 453 456 459 462 465 468 471 474 477 480 483 486 489 492 495 498 501 504 507 510 513 516 519 522 525 528 531 534 537 540 543 546 549 552 555 558 561 564 567 570 573 576 579 582 585 588 591 594 597 600 603 606 
				</DataArray>
			</Polys>
		</Piece>
	</PolyData>
</VTKFile>
