<?xml version="1.0"?>
<VTKFile type="PolyData" version="0.1" byte_order="LittleEndian" compressor="vtkZLibDataCompressor">
	<PolyData>
		<Piece NumberOfPoints="93" NumberOfVerts="0" NumberOfLines="0" NumberOfStrips="0" NumberOfPolys="182">
		<PointData Normals="Normals">
		<DataArray type="Float32" Name="Normals" NumberOfComponents="3" format="ascii">
			 0.232218  0.529388 -0.815980
			 0.795972  0.290560 -0.531040
			 0.214143 -0.274845 -0.937338
			 0.337767  0.940859  0.026430
			-0.310902 -0.036606 -0.949737
			 0.023062  0.819096 -0.573193
			 0.968914 -0.243826 -0.041893
			 0.643856 -0.461331 -0.610429
			 0.882544  0.438571  0.169620
			-0.329983 -0.668487 -0.666511
			 0.182669 -0.868217 -0.461337
			-0.070515  0.715813  0.694723
			 0.681469  0.663562  0.308684
			 0.054955  0.982507  0.177935
			-0.621660 -0.437844 -0.649485
			-0.024144  0.309862 -0.950475
			-0.819206 -0.451823 -0.353211
			 0.947980 -0.317277  0.025857
			 0.643722 -0.759793 -0.091302
			-0.381741 -0.921873  0.066511
			 0.179452 -0.983432  0.025648
			-0.255565  0.166673  0.952316
			-0.410979 -0.249274  0.876903
			-0.085199 -0.075030  0.993535
			 0.555761  0.345621  0.756093
			 0.961495 -0.191395  0.197218
			 0.240929  0.660488  0.711132
			 0.271717  0.869895 -0.411647
			-0.537274 -0.836619 -0.106799
			 0.035355 -0.788657 -0.613816
			 0.219458  0.000313 -0.975622
			 0.440030 -0.897965 -0.005760
			 0.289096 -0.820297 -0.493493
			 0.762669 -0.607167 -0.222898
			-0.231871 -0.909926 -0.343905
			-0.170663 -0.431986  0.885586
			-0.297823 -0.938982  0.172086
			-0.711542 -0.684500  0.158644
			-0.700159 -0.667870  0.252442
			-0.175866 -0.540329  0.822871
			 0.497902 -0.742070  0.448805
			 0.531059 -0.336569  0.777623
			 0.381618  0.922696  0.054765
			-0.461122  0.887141 -0.018650
			 0.305681  0.951620  0.031278
			-0.073909  0.959535  0.271718
			-0.733916  0.676260  0.063561
			-0.535930  0.562863  0.629257
			 0.239804  0.019032  0.970635
			 0.275851 -0.136012  0.951529
			 0.561363  0.697090 -0.446024
			 0.318266  0.174664 -0.931772
			-0.318613 -0.880289 -0.351535
			 0.002139 -0.978556  0.205968
			 0.261342 -0.706439 -0.657757
			 0.079450 -0.953903  0.289409
			-0.286146 -0.926520  0.244298
			-0.311129 -0.722525 -0.617378
			-0.284121 -0.610112 -0.739620
			 0.013292 -0.581516  0.813426
			-0.534858 -0.719952 -0.442262
			-0.624664 -0.430312 -0.651634
			 0.401883  0.883624 -0.240205
			-0.677865  0.542206 -0.496499
			-0.267477  0.881993 -0.388001
			-0.772014  0.507562 -0.382590
			-0.794634  0.591341 -0.137379
			-0.897316  0.112390  0.426839
			-0.461506  0.282539  0.840942
			-0.565866  0.018744  0.824284
			 0.259070 -0.434730  0.862492
			 0.387373 -0.587640  0.710367
			 0.667138  0.188114 -0.720792
			 0.384337  0.651938 -0.653653
			 0.555297 -0.326432 -0.764910
			 0.154305 -0.898575  0.410795
			 0.318404 -0.893294 -0.317244
			-0.081207  0.340905 -0.936584
			-0.409184  0.097136 -0.907267
			-0.529713 -0.455890 -0.715240
			-0.722817  0.440395 -0.532529
			-0.767709  0.082950 -0.635407
			-0.586027  0.801269 -0.120586
			-0.846710  0.286706 -0.448199
			-0.556371 -0.816905  0.152044
			-0.977384  0.171612 -0.123574
			-0.160597 -0.726423  0.668220
			 0.237718 -0.918401  0.316275
			 0.509168 -0.241557 -0.826074
			-0.373157 -0.852273 -0.366586
			 0.262537 -0.804141 -0.533322
			 0.025666 -0.578274 -0.815439
			-0.949466  0.073241 -0.305206
		</DataArray>
	</PointData>
	<Points>
		<DataArray type="Float32" NumberOfComponents="3" format="ascii">
			 0.036491 -0.000792  0.002177
			 0.038608 -0.001898  0.003232
			 0.035569 -0.005690  0.001857
			 0.037485 -0.000718  0.003899
			 0.033429 -0.003932  0.001772
			 0.033792 -0.000513  0.002980
			 0.038914 -0.003618  0.004832
			 0.037496 -0.005160  0.002583
			 0.038613 -0.001863  0.005640
			 0.033802 -0.006620  0.002434
			 0.034821 -0.006809  0.002702
			 0.032954 -0.002010  0.010901
			 0.037212 -0.001909  0.009229
			 0.027470  0.000375  0.006841
			 0.032483 -0.003664  0.002806
			 0.032261 -0.001171  0.002214
			 0.033220 -0.005987  0.002526
			 0.037933 -0.003795  0.008894
			 0.036957 -0.006397  0.003608
			 0.033968 -0.006855  0.003504
			 0.035880 -0.007023  0.004255
			 0.024581 -0.001997  0.008585
			 0.031431 -0.004288  0.010966
			 0.034744 -0.004126  0.012281
			 0.037322 -0.003463  0.012024
			 0.037676 -0.004907  0.010978
			 0.010398  0.003357  0.004811
			 0.022576  0.001086  0.002331
			 0.032565 -0.004879  0.005872
			 0.027009 -0.002615  0.002437
			 0.022064 -0.001571  0.001049
			 0.035998 -0.005836  0.007947
			 0.034718 -0.007821  0.008897
			 0.036696 -0.006750  0.009706
			 0.034470 -0.006096  0.007417
			 0.015922 -0.003834  0.005863
			 0.026428 -0.003894  0.008718
			 0.030293 -0.004991  0.009665
			 0.031237 -0.007009  0.009507
			 0.035135 -0.007293  0.011144
			 0.036364 -0.007047  0.011038
			 0.037172 -0.005266  0.011797
			 0.008891  0.005122  0.001545
			 0.007379  0.005308  0.001815
			 0.013486  0.003292  0.002548
			 0.006444  0.004832  0.005018
			 0.005872  0.004269  0.006132
			 0.004876  0.002990  0.007106
			 0.005080  0.001570  0.007420
			 0.008750 -0.000165  0.005527
			 0.009813  0.003885  0.000048
			 0.019703  0.000199  0.000617
			 0.032403 -0.004973  0.006830
			 0.015877 -0.004447  0.004187
			 0.010956 -0.003928 -0.001050
			 0.034268 -0.007998  0.010201
			 0.033058 -0.007858  0.009883
			 0.032655 -0.007501  0.008503
			 0.032229 -0.005569  0.007798
			 0.009756 -0.003562  0.004798
			 0.031252 -0.005546  0.008342
			 0.031761 -0.006472  0.008428
			 0.008722  0.005076 -0.000972
			 0.007448  0.004160 -0.002389
			 0.007718  0.005003 -0.001321
			 0.004841 -0.002586 -0.003804
			 0.003536 -0.002651  0.001200
			 0.002094 -0.003934  0.005784
			 0.004466  0.002160  0.007358
			 0.003621 -0.000551  0.007253
			 0.005806 -0.003708  0.006251
			 0.006801 -0.003437  0.005496
			 0.010640  0.000614 -0.001941
			 0.008501  0.003491 -0.003546
			 0.010089 -0.003137 -0.001953
			 0.007565 -0.003958  0.004612
			 0.008899 -0.004227 -0.002257
			 0.008146  0.001113 -0.004756
			 0.005048 -0.003151 -0.004638
			 0.004300 -0.003615 -0.003960
			 0.003964 -0.003490 -0.003279
			 0.003331 -0.003895 -0.002798
			 0.002066 -0.004135  0.000634
			 0.002254 -0.004254 -0.001385
			 0.001902 -0.004683  0.004989
			 0.001507 -0.004496  0.001182
			 0.002726 -0.004647  0.005758
			 0.005335 -0.004708  0.005020
			 0.008239 -0.002761 -0.004706
			 0.003655 -0.005022 -0.002206
			 0.007842 -0.003529 -0.004437
			 0.007023 -0.003423 -0.004773
			 0.001874 -0.004337 -0.000548
		</DataArray>
	</Points>
			<Polys>
				<DataArray type="Int32" Name="connectivity" format="ascii">
					0 1 2 
					3 1 0 
					4 0 2 
					4 5 0 
					3 0 5 
					6 7 1 
					7 2 1 
					1 3 8 
					6 1 8 
					4 2 9 
					2 10 9 
					10 2 7 
					3 11 12 
					3 12 8 
					3 5 13 
					13 11 3 
					4 14 15 
					5 4 15 
					16 14 4 
					9 16 4 
					13 5 15 
					8 17 6 
					6 17 18 
					18 7 6 
					7 18 10 
					12 17 8 
					19 16 9 
					9 10 19 
					10 18 20 
					10 20 19 
					11 13 21 
					22 23 11 
					21 22 11 
					11 24 12 
					23 24 11 
					17 12 25 
					25 12 24 
					26 13 27 
					21 13 26 
					27 13 15 
					14 28 29 
					14 16 28 
					29 15 14 
					15 29 30 
					15 30 27 
					19 28 16 
					31 17 32 
					33 32 17 
					17 31 18 
					33 17 25 
					31 20 18 
					28 19 34 
					20 31 19 
					31 34 19 
					21 35 36 
					36 22 21 
					21 26 35 
					36 37 22 
					22 38 39 
					37 38 22 
					23 22 39 
					40 41 23 
					39 40 23 
					23 41 24 
					25 24 41 
					40 25 41 
					40 33 25 
					26 42 43 
					27 44 26 
					44 42 26 
					43 45 26 
					26 45 46 
					46 47 26 
					47 48 26 
					49 26 48 
					26 49 35 
					50 27 51 
					27 50 44 
					51 27 30 
					29 28 36 
					52 36 28 
					34 52 28 
					53 29 36 
					29 53 54 
					54 30 29 
					51 30 54 
					31 32 34 
					32 40 55 
					55 56 32 
					56 57 32 
					33 40 32 
					32 57 58 
					32 58 34 
					52 34 58 
					35 59 53 
					35 53 36 
					49 59 35 
					36 58 60 
					37 36 60 
					52 58 36 
					60 61 37 
					37 61 38 
					38 56 39 
					61 57 38 
					56 38 57 
					40 39 55 
					39 56 55 
					44 50 42 
					50 62 42 
					62 43 42 
					43 46 45 
					63 43 64 
					64 43 62 
					46 43 65 
					43 63 65 
					46 66 67 
					67 47 46 
					46 65 66 
					47 68 48 
					69 68 47 
					69 47 67 
					69 48 68 
					48 69 70 
					48 70 49 
					70 71 49 
					49 71 59 
					51 72 50 
					72 73 50 
					73 62 50 
					72 51 74 
					51 54 74 
					75 53 59 
					53 75 54 
					74 54 76 
					76 54 75 
					61 58 57 
					61 60 58 
					71 75 59 
					64 62 73 
					63 77 65 
					64 73 63 
					73 77 63 
					78 65 77 
					78 79 65 
					79 80 65 
					81 65 80 
					82 65 83 
					81 83 65 
					65 82 66 
					84 67 66 
					66 85 84 
					82 85 66 
					67 70 69 
					67 86 70 
					86 67 84 
					86 87 70 
					70 87 71 
					87 75 71 
					73 72 77 
					77 72 88 
					88 72 74 
					88 74 76 
					75 87 76 
					89 76 84 
					87 84 76 
					76 89 79 
					76 79 90 
					90 88 76 
					77 88 78 
					78 91 79 
					88 91 78 
					79 89 81 
					91 90 79 
					79 81 80 
					83 81 89 
					83 92 82 
					82 92 85 
					89 92 83 
					84 87 86 
					89 84 85 
					92 89 85 
					90 91 88 
				</DataArray>
				<DataArray type="Int32" Name="offsets" format="ascii">
					3 6 9 12 15 18 21 24 27 30 33 36 39 42 45 48 51 54 57 60 63 66 69 72 75 78 81 84 87 90 93 96 99 102 105 108 111 114 117 120 123 126 129 132 135 138 141 144 147 150 153 156 159 162 165 168 171 174 177 180 183 186 189 192 195 198 201 204 207 210 213 216 219 222 225 228 231 234 237 240 243 246 249 252 255 258 261 264 267 270 273 276 279 282 285 288 291 294 297 300 303 306 309 312 315 318 321 324 327 330 333 336 339 342 345 348 351 354 357 360 363 366 369 372 375 378 381 384 387 390 393 396 399 402 405 408 411 414 417 420 423 426 429 432 435 438 441 444 447 450 453 456 459 462 465 468 471 474 477 480 483 486 489 492 495 498 501 504 507 510 513 516 519 522 525 528 531 534 537 540 543 546 
				</DataArray>
			</Polys>
		</Piece>
	</PolyData>
</VTKFile>
