<?xml version="1.0"?>
<VTKFile type="PolyData" version="0.1" byte_order="LittleEndian" compressor="vtkZLibDataCompressor">
	<PolyData>
		<Piece NumberOfPoints="102" NumberOfVerts="0" NumberOfLines="0" NumberOfStrips="0" NumberOfPolys="200">
		<PointData Normals="Normals">
		<DataArray type="Float32" Name="Normals" NumberOfComponents="3" format="ascii">
			 0.104980  0.510243  0.853599
			 0.827405  0.429489  0.361857
			 0.354159  0.821531  0.446831
			 0.073137  0.858121  0.508212
			 0.552346 -0.132963  0.822943
			 0.095885 -0.128053  0.987121
			-0.355328  0.130041  0.925652
			 0.102078  0.541896  0.834223
			-0.293559  0.634280  0.715201
			 0.408321  0.912223 -0.033518
			 0.918834 -0.258425  0.298264
			 0.955813 -0.292506  0.029363
			 0.758377  0.435965 -0.484561
			 0.164887  0.524537  0.835268
			 0.249023  0.859635 -0.446112
			 0.588365 -0.664587  0.460599
			 0.132323 -0.774422  0.618677
			-0.683945 -0.529595  0.501745
			-0.590655 -0.461131  0.662182
			 0.681701 -0.730874 -0.033254
			 0.456272 -0.849772  0.264015
			 0.734823 -0.589780  0.334954
			 0.803325 -0.349786 -0.481994
			 0.153749  0.049574 -0.986866
			 0.353621  0.673140  0.649489
			 0.159457 -0.121663  0.979679
			 0.037669 -0.006683 -0.999268
			 0.134895  0.586699 -0.798491
			-0.253462 -0.079134 -0.964103
			 0.378248  0.917674  0.121668
			 0.226155  0.904766 -0.360905
			 0.162608 -0.986470  0.020856
			-0.470132 -0.882575  0.006166
			-0.607332 -0.784490  0.125388
			 0.180170 -0.802758  0.568435
			-0.313615 -0.894389  0.318927
			 0.121196 -0.883844  0.451808
			 0.596926 -0.786917 -0.156337
			 0.316463 -0.561478 -0.764587
			-0.071417 -0.600902 -0.796126
			-0.434978 -0.393426 -0.809944
			 0.615701  0.532698  0.580642
			 0.548212 -0.012842  0.836241
			 0.257947  0.042748 -0.965213
			-0.268832 -0.891857 -0.363758
			 0.161374 -0.630082 -0.759575
			 0.262728  0.673013 -0.691396
			-0.749744 -0.512357 -0.418779
			 0.656144  0.718657  0.230232
			 0.490131  0.829395 -0.268096
			-0.628928 -0.656087  0.417133
			 0.292161 -0.956365  0.002735
			 0.572709 -0.551311  0.606680
			 0.168890 -0.968255  0.184276
			-0.503505 -0.701856  0.503867
			 0.141473 -0.953405 -0.266466
			-0.347363 -0.918215 -0.190317
			-0.823254 -0.566854 -0.030481
			 0.598612 -0.105229  0.794098
			 0.563964  0.317077  0.762500
			 0.352809  0.682068  0.640553
			 0.437928  0.534386 -0.722946
			 0.259453 -0.580168 -0.772068
			-0.311596  0.296006 -0.902933
			 0.587426  0.805744 -0.075546
			 0.322261  0.912441  0.252189
			 0.424521  0.860719 -0.280972
			 0.022149 -0.991725  0.126459
			 0.054126 -0.986127 -0.156921
			 0.077659 -0.996269  0.037648
			 0.145968 -0.590711  0.793571
			-0.106076 -0.957065  0.269768
			-0.119205 -0.990121  0.073831
			-0.184442  0.286994  0.940008
			-0.662926  0.607026  0.438234
			-0.064438  0.873167 -0.483143
			-0.385652 -0.135495 -0.912641
			 0.111036 -0.645678 -0.755494
			-0.823600  0.560784 -0.084883
			-0.953483  0.294813 -0.062889
			-0.366438  0.929978 -0.029396
			 0.029360 -0.987067  0.157597
			-0.033277 -0.904959 -0.424196
			 0.240946 -0.968209  0.067203
			 0.278976 -0.943637 -0.178108
			-0.710025 -0.137807  0.690560
			-0.053665 -0.976552  0.208486
			-0.827892  0.532934  0.174863
			-0.246991 -0.569899 -0.783716
			-0.886072 -0.172712 -0.430172
			-0.934217  0.341330  0.103596
			-0.303967 -0.950133  0.069659
			 0.345098 -0.936348  0.064499
			-0.754608 -0.616379  0.225042
			-0.290978 -0.849911 -0.439298
			 0.032740 -0.986420 -0.160943
			-0.958082  0.118186 -0.260979
			-0.971422 -0.173963 -0.161483
			-0.733506 -0.608823 -0.302166
			-0.931582 -0.127913 -0.340285
			-0.292010 -0.953453 -0.075215
			-0.700463 -0.637530 -0.320792
		</DataArray>
	</PointData>
	<Points>
		<DataArray type="Float32" NumberOfComponents="3" format="ascii">
			 0.040697 -0.000231  0.028597
			 0.045127 -0.001220  0.026918
			 0.043004  0.000629  0.026990
			 0.038619  0.001414  0.026463
			 0.043571 -0.006189  0.029232
			 0.039869 -0.006501  0.030718
			 0.038561 -0.004894  0.030387
			 0.038310 -0.001106  0.028425
			 0.038958  0.000524  0.027520
			 0.041969  0.001464  0.024542
			 0.045603 -0.005070  0.026796
			 0.045516 -0.004230  0.021138
			 0.045295 -0.003764  0.016557
			 0.036849  0.000657  0.029098
			 0.023902  0.004469  0.018076
			 0.043059 -0.008089  0.028333
			 0.040134 -0.008412  0.029577
			 0.038846 -0.008014  0.029869
			 0.037174 -0.003493  0.028099
			 0.044175 -0.007783  0.026102
			 0.042461 -0.007414  0.021858
			 0.043823 -0.009096  0.019470
			 0.044109 -0.008539  0.016251
			 0.041473 -0.004788  0.014623
			 0.025538  0.002967  0.028451
			 0.025679 -0.000036  0.029192
			 0.023653  0.000138  0.017155
			 0.021124  0.005229  0.017791
			 0.035951 -0.003704  0.015086
			 0.021416  0.006330  0.024432
			 0.021248  0.005965  0.019257
			 0.041720 -0.009024  0.027407
			 0.039174 -0.008554  0.028136
			 0.037674 -0.005628  0.023587
			 0.025838 -0.001880  0.028292
			 0.040296 -0.007748  0.022018
			 0.040850 -0.010732  0.019652
			 0.043570 -0.009720  0.016889
			 0.041758 -0.010121  0.015746
			 0.039000 -0.010253  0.015473
			 0.037246 -0.008948  0.015207
			 0.018263  0.004468  0.030535
			 0.017747 -0.000892  0.032678
			 0.015970  0.000262  0.015155
			 0.031021 -0.004273  0.016860
			 0.019954 -0.004450  0.017508
			 0.018566  0.005311  0.017998
			 0.035347 -0.006115  0.016245
			 0.016791  0.007188  0.027217
			 0.017083  0.006859  0.019353
			 0.038576 -0.006670  0.021877
			 0.016927 -0.004654  0.018604
			 0.015620 -0.003428  0.033710
			 0.011138 -0.007091  0.031705
			 0.038117 -0.010138  0.019203
			 0.040403 -0.011181  0.016811
			 0.038760 -0.010906  0.016635
			 0.036450 -0.009464  0.016440
			 0.014616 -0.001583  0.036544
			 0.015046  0.003877  0.035478
			 0.012619  0.008442  0.033915
			 0.014190  0.006519  0.014719
			 0.015093 -0.005050  0.015810
			 0.007259  0.005362  0.013356
			 0.015700  0.009190  0.025160
			 0.013274  0.011013  0.029644
			 0.014892  0.008643  0.018753
			 0.010826 -0.007497  0.028663
			 0.009116 -0.008509  0.018042
			 0.010525 -0.007560  0.024631
			 0.010834 -0.005195  0.036687
			 0.008882 -0.006789  0.034148
			 0.010034 -0.006445  0.031321
			 0.012191  0.004171  0.036317
			 0.010536  0.009508  0.031687
			 0.010087  0.008996  0.015942
			 0.006296  0.001042  0.013351
			 0.008709 -0.007566  0.016577
			 0.007752  0.007871  0.016280
			 0.004382 -0.002263  0.016312
			 0.010185  0.010745  0.026651
			 0.008695 -0.007155  0.028917
			 0.007185 -0.007498  0.016466
			 0.008837 -0.007146  0.026688
			 0.007959 -0.007990  0.019129
			 0.005373 -0.005271  0.034437
			 0.006824 -0.007262  0.032056
			 0.004568 -0.004498  0.019417
			 0.005900 -0.006877  0.015607
			 0.003777 -0.006011  0.017356
			 0.003683 -0.005323  0.019507
			 0.004182 -0.009191  0.022193
			 0.007313 -0.009294  0.023245
			 0.001589 -0.006656  0.028597
			 0.004844 -0.008607  0.018012
			 0.006459 -0.009544  0.020155
			 0.003093 -0.006868  0.020520
			 0.001813 -0.007025  0.024268
			 0.004214 -0.008243  0.018476
			 0.003562 -0.006847  0.019810
			 0.005492 -0.008981  0.020688
			 0.003547 -0.008677  0.020630
		</DataArray>
	</Points>
			<Polys>
				<DataArray type="Int32" Name="connectivity" format="ascii">
					0 1 2 
					0 2 3 
					1 0 4 
					0 5 4 
					0 6 5 
					6 0 7 
					3 8 0 
					7 0 8 
					9 2 1 
					10 11 1 
					9 1 12 
					12 1 11 
					10 1 4 
					3 2 9 
					13 3 14 
					8 3 7 
					3 9 14 
					13 7 3 
					10 4 15 
					16 15 4 
					4 5 16 
					17 5 6 
					17 16 5 
					17 6 18 
					13 18 6 
					7 13 6 
					14 9 12 
					19 11 10 
					19 10 15 
					20 11 19 
					11 20 21 
					22 11 21 
					22 12 11 
					23 12 22 
					12 23 14 
					13 14 24 
					25 13 24 
					13 25 18 
					14 26 27 
					14 23 28 
					24 14 29 
					29 14 30 
					27 30 14 
					14 28 26 
					31 19 15 
					31 15 16 
					16 32 31 
					32 16 17 
					32 17 33 
					33 17 18 
					33 18 34 
					18 25 34 
					20 19 31 
					35 36 20 
					20 36 21 
					31 35 20 
					36 37 21 
					22 21 37 
					23 22 38 
					22 37 38 
					39 40 23 
					23 38 39 
					40 28 23 
					41 42 24 
					29 41 24 
					24 42 25 
					34 25 42 
					27 26 43 
					28 44 26 
					26 44 45 
					26 45 43 
					27 46 30 
					43 46 27 
					28 47 44 
					28 40 47 
					41 29 48 
					48 29 49 
					29 30 49 
					46 49 30 
					31 32 35 
					35 32 33 
					50 35 33 
					50 33 44 
					33 34 44 
					51 44 34 
					42 52 34 
					51 34 53 
					34 52 53 
					36 35 54 
					50 54 35 
					55 37 36 
					36 56 55 
					36 54 56 
					55 38 37 
					38 55 39 
					56 40 39 
					55 56 39 
					40 56 57 
					40 57 47 
					58 42 41 
					59 41 60 
					60 41 48 
					41 59 58 
					52 42 58 
					43 61 46 
					45 62 43 
					63 61 43 
					63 43 62 
					45 44 51 
					50 44 47 
					51 62 45 
					49 46 61 
					50 47 57 
					48 49 64 
					48 64 65 
					65 60 48 
					49 61 66 
					66 64 49 
					54 50 57 
					51 53 67 
					62 51 68 
					69 68 51 
					67 69 51 
					53 52 70 
					70 52 58 
					71 53 70 
					53 71 72 
					67 53 72 
					54 57 56 
					73 58 59 
					73 70 58 
					73 59 60 
					74 60 65 
					74 73 60 
					75 61 63 
					75 66 61 
					62 76 63 
					68 77 62 
					77 76 62 
					78 63 79 
					78 75 63 
					79 63 76 
					80 64 66 
					64 80 65 
					65 80 74 
					66 75 80 
					81 69 67 
					67 72 81 
					82 77 68 
					83 68 69 
					68 84 82 
					68 83 84 
					69 81 83 
					85 70 73 
					71 70 85 
					72 71 86 
					85 86 71 
					86 81 72 
					74 85 73 
					74 87 85 
					80 87 74 
					78 80 75 
					88 76 77 
					76 89 79 
					76 88 89 
					77 82 88 
					87 78 79 
					78 87 80 
					79 89 90 
					90 87 79 
					81 91 92 
					91 81 93 
					83 81 92 
					93 81 86 
					94 88 82 
					84 94 82 
					83 92 84 
					95 84 92 
					84 95 94 
					86 85 93 
					87 93 85 
					90 96 87 
					96 97 87 
					87 97 93 
					89 88 94 
					98 89 94 
					90 89 99 
					99 89 98 
					99 96 90 
					100 92 91 
					91 101 100 
					91 97 101 
					97 91 93 
					100 95 92 
					94 95 100 
					100 98 94 
					96 99 101 
					96 101 97 
					101 99 98 
					100 101 98 
				</DataArray>
				<DataArray type="Int32" Name="offsets" format="ascii">
					3 6 9 12 15 18 21 24 27 30 33 36 39 42 45 48 51 54 57 60 63 66 69 72 75 78 81 84 87 90 93 96 99 102 105 108 111 114 117 120 123 126 129 132 135 138 141 144 147 150 153 156 159 162 165 168 171 174 177 180 183 186 189 192 195 198 201 204 207 210 213 216 219 222 225 228 231 234 237 240 243 246 249 252 255 258 261 264 267 270 273 276 279 282 285 288 291 294 297 300 303 306 309 312 315 318 321 324 327 330 333 336 339 342 345 348 351 354 357 360 363 366 369 372 375 378 381 384 387 390 393 396 399 402 405 408 411 414 417 420 423 426 429 432 435 438 441 444 447 450 453 456 459 462 465 468 471 474 477 480 483 486 489 492 495 498 501 504 507 510 513 516 519 522 525 528 531 534 537 540 543 546 549 552 555 558 561 564 567 570 573 576 579 582 585 588 591 594 597 600 
				</DataArray>
			</Polys>
		</Piece>
	</PolyData>
</VTKFile>
