<?xml version="1.0"?>
<VTKFile type="PolyData" version="0.1" byte_order="LittleEndian" compressor="vtkZLibDataCompressor">
	<PolyData>
		<Piece NumberOfPoints="93" NumberOfVerts="0" NumberOfLines="0" NumberOfStrips="0" NumberOfPolys="182">
		<PointData Normals="Normals">
		<DataArray type="Float32" Name="Normals" NumberOfComponents="3" format="ascii">
			 0.232218  0.529386  0.815981
			 0.795966  0.290562  0.531048
			 0.214123 -0.274834  0.937346
			 0.337772  0.940857 -0.026423
			-0.310917 -0.036611  0.949732
			 0.023065  0.819095  0.573194
			 0.968914 -0.243825  0.041898
			 0.643857 -0.461325  0.610432
			 0.882548  0.438565 -0.169613
			-0.330004 -0.668474  0.666513
			 0.182657 -0.868213  0.461348
			-0.070515  0.715815 -0.694721
			 0.681467  0.663565 -0.308683
			 0.054958  0.982507 -0.177932
			-0.621665 -0.437835  0.649486
			-0.024143  0.309870  0.950472
			-0.819205 -0.451823  0.353212
			 0.947977 -0.317286 -0.025861
			 0.643722 -0.759794  0.091293
			-0.381738 -0.921876 -0.066496
			 0.179460 -0.983431 -0.025647
			-0.255565  0.166679 -0.952315
			-0.410976 -0.249268 -0.876906
			-0.085210 -0.075034 -0.993534
			 0.555755  0.345619 -0.756098
			 0.961496 -0.191393 -0.197217
			 0.240932  0.660491 -0.711128
			 0.271711  0.869893  0.411655
			-0.537275 -0.836618  0.106801
			 0.035356 -0.788656  0.613818
			 0.219456  0.000314  0.975622
			 0.440032 -0.897964  0.005758
			 0.289100 -0.820297  0.493491
			 0.762663 -0.607175  0.222896
			-0.231868 -0.909930  0.343897
			-0.170662 -0.431983 -0.885587
			-0.297823 -0.938979 -0.172101
			-0.711556 -0.684487 -0.158635
			-0.700158 -0.667859 -0.252472
			-0.175877 -0.540303 -0.822885
			 0.497892 -0.742069 -0.448818
			 0.531058 -0.336573 -0.777622
			 0.381635  0.922690 -0.054756
			-0.461115  0.887145  0.018639
			 0.305688  0.951618 -0.031257
			-0.073880  0.959537 -0.271718
			-0.733892  0.676284 -0.063573
			-0.535964  0.562865 -0.629227
			 0.239777  0.019024 -0.970642
			 0.275856 -0.136016 -0.951527
			 0.561375  0.697080  0.446024
			 0.318263  0.174669  0.931772
			-0.318618 -0.880295  0.351516
			 0.002143 -0.978557 -0.205967
			 0.261345 -0.706439  0.657756
			 0.079434 -0.953896 -0.289436
			-0.286151 -0.926513 -0.244316
			-0.311132 -0.722531  0.617370
			-0.284135 -0.610120  0.739609
			 0.013298 -0.581504 -0.813435
			-0.534889 -0.719930  0.442261
			-0.624694 -0.430277  0.651629
			 0.401883  0.883623  0.240209
			-0.677871  0.542205  0.496493
			-0.267505  0.881987  0.387996
			-0.772021  0.507538  0.382607
			-0.794643  0.591331  0.137370
			-0.897315  0.112391 -0.426843
			-0.461587  0.282538 -0.840898
			-0.565889  0.018746 -0.824268
			 0.259080 -0.434739 -0.862484
			 0.387378 -0.587634 -0.710369
			 0.667138  0.188117  0.720790
			 0.384331  0.651945  0.653650
			 0.555300 -0.326438  0.764906
			 0.154304 -0.898568 -0.410811
			 0.318393 -0.893298  0.317246
			-0.081213  0.340903  0.936584
			-0.409191  0.097107  0.907267
			-0.529727 -0.455911  0.715217
			-0.722814  0.440358  0.532565
			-0.767691  0.082924  0.635432
			-0.586068  0.801239  0.120579
			-0.846711  0.286688  0.448208
			-0.556374 -0.816902 -0.152053
			-0.977393  0.171572  0.123556
			-0.160601 -0.726419 -0.668223
			 0.237713 -0.918402 -0.316277
			 0.509171 -0.241589  0.826063
			-0.373160 -0.852267  0.366596
			 0.262541 -0.804181  0.533259
			 0.025691 -0.578354  0.815381
			-0.949467  0.073207  0.305210
		</DataArray>
	</PointData>
	<Points>
		<DataArray type="Float32" NumberOfComponents="3" format="ascii">
			 0.036491 -0.000792 -0.002177
			 0.038608 -0.001898 -0.003232
			 0.035569 -0.005690 -0.001857
			 0.037485 -0.000718 -0.003899
			 0.033429 -0.003932 -0.001772
			 0.033792 -0.000513 -0.002980
			 0.038914 -0.003618 -0.004832
			 0.037496 -0.005160 -0.002583
			 0.038613 -0.001863 -0.005640
			 0.033802 -0.006620 -0.002434
			 0.034821 -0.006809 -0.002702
			 0.032954 -0.002010 -0.010901
			 0.037212 -0.001909 -0.009229
			 0.027470  0.000375 -0.006841
			 0.032483 -0.003664 -0.002806
			 0.032261 -0.001171 -0.002214
			 0.033220 -0.005987 -0.002526
			 0.037933 -0.003795 -0.008894
			 0.036957 -0.006397 -0.003608
			 0.033968 -0.006855 -0.003504
			 0.035880 -0.007023 -0.004255
			 0.024581 -0.001997 -0.008585
			 0.031431 -0.004288 -0.010966
			 0.034744 -0.004126 -0.012281
			 0.037322 -0.003463 -0.012024
			 0.037676 -0.004907 -0.010978
			 0.010398  0.003357 -0.004811
			 0.022576  0.001086 -0.002331
			 0.032565 -0.004879 -0.005872
			 0.027009 -0.002615 -0.002437
			 0.022064 -0.001571 -0.001049
			 0.035998 -0.005836 -0.007947
			 0.034718 -0.007821 -0.008897
			 0.036696 -0.006750 -0.009706
			 0.034470 -0.006096 -0.007417
			 0.015922 -0.003834 -0.005863
			 0.026428 -0.003894 -0.008718
			 0.030293 -0.004991 -0.009665
			 0.031237 -0.007009 -0.009507
			 0.035135 -0.007293 -0.011144
			 0.036364 -0.007047 -0.011038
			 0.037172 -0.005266 -0.011797
			 0.008891  0.005122 -0.001545
			 0.007379  0.005308 -0.001815
			 0.013486  0.003292 -0.002548
			 0.006444  0.004832 -0.005018
			 0.005872  0.004269 -0.006132
			 0.004876  0.002990 -0.007106
			 0.005080  0.001570 -0.007420
			 0.008750 -0.000165 -0.005527
			 0.009813  0.003885 -0.000048
			 0.019703  0.000199 -0.000617
			 0.032403 -0.004973 -0.006830
			 0.015877 -0.004447 -0.004187
			 0.010956 -0.003928  0.001050
			 0.034268 -0.007998 -0.010201
			 0.033058 -0.007858 -0.009883
			 0.032655 -0.007501 -0.008503
			 0.032229 -0.005569 -0.007798
			 0.009756 -0.003562 -0.004798
			 0.031252 -0.005546 -0.008342
			 0.031761 -0.006472 -0.008428
			 0.008722  0.005076  0.000972
			 0.007448  0.004160  0.002389
			 0.007718  0.005003  0.001321
			 0.004841 -0.002586  0.003804
			 0.003536 -0.002651 -0.001200
			 0.002094 -0.003934 -0.005784
			 0.004466  0.002160 -0.007358
			 0.003621 -0.000551 -0.007253
			 0.005806 -0.003708 -0.006251
			 0.006801 -0.003437 -0.005496
			 0.010640  0.000614  0.001941
			 0.008501  0.003491  0.003546
			 0.010089 -0.003137  0.001953
			 0.007565 -0.003958 -0.004612
			 0.008899 -0.004227  0.002257
			 0.008146  0.001113  0.004756
			 0.005048 -0.003151  0.004638
			 0.004300 -0.003615  0.003960
			 0.003964 -0.003490  0.003279
			 0.003331 -0.003895  0.002798
			 0.002066 -0.004135 -0.000634
			 0.002254 -0.004254  0.001385
			 0.001902 -0.004683 -0.004989
			 0.001507 -0.004496 -0.001182
			 0.002726 -0.004647 -0.005758
			 0.005335 -0.004708 -0.005020
			 0.008239 -0.002761  0.004706
			 0.003655 -0.005022  0.002206
			 0.007842 -0.003529  0.004437
			 0.007023 -0.003423  0.004773
			 0.001874 -0.004337  0.000548
		</DataArray>
	</Points>
			<Polys>
				<DataArray type="Int32" Name="connectivity" format="ascii">
					2 1 0 
					0 1 3 
					2 0 4 
					0 5 4 
					5 0 3 
					1 7 6 
					1 2 7 
					8 3 1 
					8 1 6 
					9 2 4 
					9 10 2 
					7 2 10 
					12 11 3 
					8 12 3 
					13 5 3 
					3 11 13 
					15 14 4 
					15 4 5 
					4 14 16 
					4 16 9 
					15 5 13 
					6 17 8 
					18 17 6 
					6 7 18 
					10 18 7 
					8 17 12 
					9 16 19 
					19 10 9 
					20 18 10 
					19 20 10 
					21 13 11 
					11 23 22 
					11 22 21 
					12 24 11 
					11 24 23 
					25 12 17 
					24 12 25 
					27 13 26 
					26 13 21 
					15 13 27 
					29 28 14 
					28 16 14 
					14 15 29 
					30 29 15 
					27 30 15 
					16 28 19 
					32 17 31 
					17 32 33 
					18 31 17 
					25 17 33 
					18 20 31 
					34 19 28 
					19 31 20 
					19 34 31 
					36 35 21 
					21 22 36 
					35 26 21 
					22 37 36 
					39 38 22 
					22 38 37 
					39 22 23 
					23 41 40 
					23 40 39 
					24 41 23 
					41 24 25 
					41 25 40 
					25 33 40 
					43 42 26 
					26 44 27 
					26 42 44 
					26 45 43 
					46 45 26 
					26 47 46 
					26 48 47 
					48 26 49 
					35 49 26 
					51 27 50 
					44 50 27 
					30 27 51 
					36 28 29 
					28 36 52 
					28 52 34 
					36 29 53 
					54 53 29 
					29 30 54 
					54 30 51 
					34 32 31 
					55 40 32 
					32 56 55 
					32 57 56 
					32 40 33 
					58 57 32 
					34 58 32 
					58 34 52 
					53 59 35 
					36 53 35 
					35 59 49 
					60 58 36 
					60 36 37 
					36 58 52 
					37 61 60 
					38 61 37 
					39 56 38 
					38 57 61 
					57 38 56 
					55 39 40 
					55 56 39 
					42 50 44 
					42 62 50 
					42 43 62 
					45 46 43 
					64 43 63 
					62 43 64 
					65 43 46 
					65 63 43 
					67 66 46 
					46 47 67 
					66 65 46 
					48 68 47 
					47 68 69 
					67 47 69 
					68 48 69 
					70 69 48 
					49 70 48 
					49 71 70 
					59 71 49 
					50 72 51 
					50 73 72 
					50 62 73 
					74 51 72 
					74 54 51 
					59 53 75 
					54 75 53 
					76 54 74 
					75 54 76 
					57 58 61 
					58 60 61 
					59 75 71 
					73 62 64 
					65 77 63 
					63 73 64 
					63 77 73 
					77 65 78 
					65 79 78 
					65 80 79 
					80 65 81 
					83 65 82 
					65 83 81 
					66 82 65 
					66 67 84 
					84 85 66 
					66 85 82 
					69 70 67 
					70 86 67 
					84 67 86 
					70 87 86 
					71 87 70 
					71 75 87 
					77 72 73 
					88 72 77 
					74 72 88 
					76 74 88 
					76 87 75 
					84 76 89 
					76 84 87 
					79 89 76 
					90 79 76 
					76 88 90 
					78 88 77 
					79 91 78 
					78 91 88 
					81 89 79 
					79 90 91 
					80 81 79 
					89 81 83 
					82 92 83 
					85 92 82 
					83 92 89 
					86 87 84 
					85 84 89 
					85 89 92 
					88 91 90 
				</DataArray>
				<DataArray type="Int32" Name="offsets" format="ascii">
					3 6 9 12 15 18 21 24 27 30 33 36 39 42 45 48 51 54 57 60 63 66 69 72 75 78 81 84 87 90 93 96 99 102 105 108 111 114 117 120 123 126 129 132 135 138 141 144 147 150 153 156 159 162 165 168 171 174 177 180 183 186 189 192 195 198 201 204 207 210 213 216 219 222 225 228 231 234 237 240 243 246 249 252 255 258 261 264 267 270 273 276 279 282 285 288 291 294 297 300 303 306 309 312 315 318 321 324 327 330 333 336 339 342 345 348 351 354 357 360 363 366 369 372 375 378 381 384 387 390 393 396 399 402 405 408 411 414 417 420 423 426 429 432 435 438 441 444 447 450 453 456 459 462 465 468 471 474 477 480 483 486 489 492 495 498 501 504 507 510 513 516 519 522 525 528 531 534 537 540 543 546 
				</DataArray>
			</Polys>
		</Piece>
	</PolyData>
</VTKFile>
