<?xml version="1.0"?>
<VTKFile type="PolyData" version="0.1" byte_order="LittleEndian" compressor="vtkZLibDataCompressor">
	<PolyData>
		<Piece NumberOfPoints="103" NumberOfVerts="0" NumberOfLines="0" NumberOfStrips="0" NumberOfPolys="202">
		<PointData Normals="Normals">
		<DataArray type="Float32" Name="Normals" NumberOfComponents="3" format="ascii">
			 0.392586  0.885245 -0.249433
			 0.884428  0.212409 -0.415535
			 0.503943 -0.008754 -0.863693
			 0.141325  0.574254 -0.806387
			 0.265565  0.899628  0.346619
			 0.841300  0.515078  0.164041
			 0.010356  0.975822  0.218321
			-0.217608  0.630297  0.745234
			 0.998582 -0.053156 -0.003050
			 0.901525 -0.247658 -0.354850
			 0.632811 -0.450932 -0.629453
			 0.215678 -0.339941 -0.915381
			-0.061309 -0.057252 -0.996475
			-0.188630  0.310520 -0.931663
			-0.054255  0.704436 -0.707691
			 0.555388  0.376831  0.741311
			 0.945304 -0.315237  0.083820
			 0.124643  0.775284 -0.619192
			 0.127462  0.960556  0.247156
			-0.363046 -0.747736  0.555957
			-0.804206 -0.438613  0.401087
			-0.314596 -0.137696  0.939185
			 0.918584 -0.391398 -0.054863
			 0.678140 -0.673443 -0.294282
			 0.184993 -0.860873 -0.473999
			-0.303812 -0.719226 -0.624829
			-0.363314 -0.117096 -0.924279
			 0.031130  0.252757 -0.967029
			-0.800235 -0.460033 -0.384700
			 0.022136  0.122368 -0.992238
			 0.718456 -0.286904  0.633646
			 0.847384 -0.517762 -0.117742
			 0.407488 -0.846437 -0.342780
			 0.393244 -0.888631 -0.235996
			 0.560945 -0.791346  0.243132
			 0.235197  0.628113 -0.741726
			 0.175382  0.070271 -0.981989
			 0.275594  0.916609 -0.289612
			-0.005911  0.652683  0.757608
			 0.129805 -0.686361  0.715583
			-0.469783 -0.741043 -0.479749
			-0.189208 -0.836986 -0.513472
			 0.485254 -0.585535 -0.649367
			 0.048022 -0.631234 -0.774105
			-0.590456 -0.805759 -0.045968
			-0.502182 -0.600349 -0.622411
			-0.771345 -0.580067  0.261818
			 0.422417 -0.729604  0.537812
			-0.067072 -0.843194  0.533410
			-0.390308 -0.892134  0.227500
			 0.175523 -0.979277  0.101038
			-0.481818 -0.869113  0.111772
			-0.231484 -0.259721 -0.937529
			-0.539901 -0.497918 -0.678664
			-0.005557 -0.812098 -0.583494
			-0.219501 -0.933999  0.281895
			 0.311791  0.813150 -0.491502
			 0.258031  0.205958 -0.943928
			 0.245856  0.917047  0.313974
			 0.141534  0.544270  0.826885
			 0.312125 -0.027413  0.949645
			 0.324535 -0.448729  0.832658
			 0.191330 -0.775332  0.601875
			 0.210587 -0.677158  0.705061
			 0.051223 -0.957527  0.283757
			 0.223480 -0.968347 -0.111184
			 0.296479  0.149685 -0.943236
			 0.298472 -0.539288 -0.787454
			 0.661930  0.323304 -0.676257
			 0.191547 -0.850148 -0.490467
			 0.386933 -0.604198 -0.696582
			 0.527420  0.833592 -0.164171
			-0.493085  0.857865 -0.144686
			-0.058463  0.906736  0.417627
			-0.352844  0.686431  0.635857
			 0.218690  0.028990  0.975364
			 0.243791 -0.340228  0.908191
			 0.218545 -0.781244  0.584719
			 0.167919 -0.792111  0.586824
			-0.132874 -0.704444  0.697211
			-0.450967 -0.882875 -0.130999
			-0.629060 -0.769717 -0.108714
			-0.523439 -0.822531  0.222383
			-0.045670 -0.983117 -0.177185
			 0.205668 -0.879930 -0.428280
			-0.356283 -0.198231 -0.913108
			 0.245014  0.555309 -0.794733
			-0.755444  0.390934 -0.525808
			 0.034864 -0.813004 -0.581214
			-0.023919 -0.761665 -0.647529
			 0.480738  0.793170 -0.373862
			-0.394897  0.768928 -0.502798
			-0.937728  0.269952  0.218613
			-0.632073  0.531765  0.563657
			-0.510880  0.177505  0.841126
			-0.075349 -0.507073  0.858603
			-0.669872 -0.269790  0.691726
			-0.944831 -0.292610  0.147223
			-0.938909 -0.344123  0.005438
			-0.891901 -0.313477 -0.325951
			-0.525272 -0.794567 -0.304553
			 0.001009 -0.864756 -0.502191
			-0.648454 -0.336698 -0.682746
		</DataArray>
	</PointData>
	<Points>
		<DataArray type="Float32" NumberOfComponents="3" format="ascii">
			 0.020884 -0.000023  0.018418
			 0.021644 -0.000653  0.018681
			 0.021139 -0.002866  0.018304
			 0.019622  0.000260  0.017757
			 0.019707 -0.000627  0.025341
			 0.021616 -0.000518  0.020782
			 0.011755  0.001261  0.021267
			 0.017538 -0.000546  0.025261
			 0.021991 -0.002211  0.020123
			 0.021673 -0.002524  0.019061
			 0.020797 -0.003826  0.018193
			 0.019049 -0.004381  0.017585
			 0.017717 -0.003891  0.017406
			 0.017470 -0.000081  0.017945
			 0.017167  0.000458  0.018379
			 0.020366 -0.001842  0.026446
			 0.021017 -0.002260  0.023723
			 0.010950  0.000426  0.017732
			 0.004900  0.002078  0.020571
			 0.011069 -0.002483  0.022812
			 0.014516 -0.003464  0.023919
			 0.018181 -0.002541  0.026465
			 0.021788 -0.002909  0.019798
			 0.020379 -0.004971  0.019091
			 0.018456 -0.005388  0.018304
			 0.017517 -0.005200  0.018065
			 0.016301 -0.001237  0.017618
			 0.017024 -0.001091  0.017778
			 0.016961 -0.004607  0.018118
			 0.015792 -0.000235  0.017744
			 0.020328 -0.003577  0.026288
			 0.020087 -0.005087  0.024464
			 0.018502 -0.006152  0.023662
			 0.018888 -0.004489  0.022577
			 0.020865 -0.004603  0.020580
			 0.002981  0.001540  0.016315
			 0.011062 -0.000325  0.017458
			 0.001185  0.002768  0.016986
			 0.000745  0.002919  0.018870
			-0.001534 -0.003837  0.018011
			 0.015427 -0.004015  0.022902
			 0.018228 -0.004574  0.022312
			-0.002864 -0.004225  0.014395
			 0.011225 -0.001575  0.017829
			 0.016499 -0.003389  0.020043
			 0.016299 -0.005392  0.023079
			 0.014962 -0.004645  0.023876
			 0.019764 -0.005330  0.025617
			 0.018074 -0.006276  0.024763
			 0.017045 -0.006133  0.024397
			 0.019458 -0.005549  0.019644
			 0.017726 -0.005391  0.018963
			 0.015706 -0.001378  0.018024
			 0.016176 -0.002486  0.018282
			 0.017527 -0.006110  0.023380
			 0.018278 -0.004706  0.021334
			-0.002595  0.003477  0.016652
			 0.000664 -0.001389  0.015113
			-0.003310  0.003648  0.018017
			-0.003707  0.003234  0.018581
			-0.006276 -0.000796  0.019372
			-0.006599 -0.003571  0.018959
			-0.007350 -0.004885  0.017984
			-0.005824 -0.004144  0.018343
			-0.008412 -0.005706  0.017473
			-0.005751 -0.005273  0.014706
			-0.005803  0.000645  0.011412
			-0.005758 -0.004052  0.011649
			-0.003515  0.000516  0.013689
			-0.005422 -0.005018  0.012666
			-0.005210 -0.004271  0.012306
			-0.005164  0.004649  0.016074
			-0.006016  0.004966  0.016068
			-0.007255  0.004459  0.018549
			-0.007754  0.003958  0.019364
			-0.007777  0.000627  0.020323
			-0.007521 -0.003769  0.019483
			-0.007692 -0.004743  0.018606
			-0.008159 -0.004940  0.018209
			-0.009824 -0.005016  0.018754
			-0.010381 -0.005179  0.016391
			-0.010163 -0.005423  0.017199
			-0.010400 -0.005358  0.017894
			-0.007963 -0.005627  0.014071
			-0.007801 -0.004911  0.013037
			-0.008146 -0.003650  0.011294
			-0.005594  0.002841  0.012282
			-0.006463  0.002457  0.012357
			-0.006985 -0.004652  0.012304
			-0.008369 -0.004622  0.012269
			-0.005386  0.004460  0.014190
			-0.006236  0.004335  0.013859
			-0.009792 -0.001292  0.019609
			-0.008586  0.002765  0.020063
			-0.008906  0.001991  0.020239
			-0.009495 -0.004070  0.019455
			-0.010620 -0.003948  0.019048
			-0.010567 -0.004758  0.018517
			-0.010827 -0.004752  0.016934
			-0.010464 -0.004728  0.014267
			-0.009699 -0.004940  0.013317
			-0.008412 -0.005516  0.013200
			-0.009391 -0.004662  0.012746
		</DataArray>
	</Points>
			<Polys>
				<DataArray type="Int32" Name="connectivity" format="ascii">
					0 1 2 
					2 3 0 
					4 5 0 
					1 0 5 
					3 6 0 
					7 4 0 
					6 7 0 
					8 9 1 
					9 2 1 
					8 1 5 
					10 11 2 
					9 10 2 
					11 12 2 
					12 3 2 
					12 13 3 
					13 14 3 
					6 3 14 
					4 15 5 
					7 15 4 
					16 8 5 
					15 16 5 
					6 14 17 
					17 18 6 
					19 6 18 
					7 6 19 
					20 21 7 
					19 20 7 
					21 15 7 
					22 8 16 
					9 8 22 
					9 23 10 
					23 9 22 
					10 23 24 
					24 11 10 
					12 11 25 
					11 24 25 
					12 26 27 
					13 12 27 
					12 28 26 
					12 25 28 
					27 14 13 
					17 14 29 
					14 27 29 
					21 30 15 
					30 16 15 
					31 32 16 
					32 33 16 
					16 33 34 
					22 16 34 
					31 16 30 
					17 35 18 
					17 29 36 
					17 36 35 
					18 35 37 
					18 37 38 
					38 19 18 
					39 19 38 
					20 19 40 
					40 19 41 
					19 39 42 
					19 42 43 
					41 19 44 
					19 43 44 
					40 45 20 
					20 45 46 
					21 20 46 
					47 30 21 
					48 47 21 
					49 21 46 
					49 48 21 
					23 22 34 
					34 50 23 
					24 23 50 
					25 24 51 
					24 50 51 
					51 28 25 
					26 52 29 
					27 26 29 
					53 52 26 
					28 53 26 
					53 28 44 
					51 44 28 
					43 36 29 
					43 29 52 
					31 30 47 
					47 32 31 
					48 49 32 
					49 54 32 
					47 48 32 
					33 32 54 
					33 54 41 
					41 55 33 
					34 33 55 
					34 55 50 
					56 35 57 
					37 35 56 
					36 57 35 
					42 36 43 
					57 36 42 
					56 38 37 
					58 38 56 
					38 58 59 
					38 59 60 
					38 60 39 
					61 39 60 
					62 39 63 
					39 61 63 
					39 62 64 
					65 39 64 
					42 39 65 
					45 40 41 
					41 54 45 
					44 55 41 
					66 42 67 
					42 66 68 
					69 42 65 
					70 42 69 
					68 57 42 
					67 42 70 
					53 44 43 
					53 43 52 
					44 51 55 
					45 54 49 
					49 46 45 
					50 55 51 
					56 68 71 
					58 56 71 
					57 68 56 
					58 71 72 
					58 73 59 
					72 73 58 
					74 59 73 
					59 74 60 
					60 74 75 
					76 61 60 
					75 76 60 
					76 77 61 
					77 63 61 
					77 62 63 
					78 64 62 
					78 62 77 
					78 79 64 
					80 64 81 
					81 64 82 
					64 79 82 
					83 65 64 
					83 64 80 
					69 65 84 
					65 83 84 
					67 85 66 
					86 66 87 
					66 85 87 
					68 66 86 
					67 70 88 
					88 89 67 
					89 85 67 
					68 90 71 
					68 86 90 
					84 88 69 
					70 69 88 
					90 72 71 
					91 72 90 
					72 74 73 
					87 72 91 
					92 72 87 
					74 72 92 
					74 93 75 
					93 74 92 
					93 94 75 
					94 92 75 
					75 92 76 
					76 92 95 
					95 77 76 
					95 78 77 
					95 79 78 
					79 96 97 
					82 79 97 
					79 95 96 
					81 98 80 
					80 99 83 
					98 99 80 
					98 81 97 
					81 82 97 
					100 101 83 
					84 83 101 
					83 99 100 
					89 88 84 
					84 101 89 
					89 102 85 
					85 102 87 
					91 86 87 
					91 90 86 
					99 87 102 
					87 99 92 
					89 101 102 
					93 92 94 
					96 95 92 
					97 96 92 
					92 98 97 
					99 98 92 
					102 100 99 
					100 102 101 
				</DataArray>
				<DataArray type="Int32" Name="offsets" format="ascii">
					3 6 9 12 15 18 21 24 27 30 33 36 39 42 45 48 51 54 57 60 63 66 69 72 75 78 81 84 87 90 93 96 99 102 105 108 111 114 117 120 123 126 129 132 135 138 141 144 147 150 153 156 159 162 165 168 171 174 177 180 183 186 189 192 195 198 201 204 207 210 213 216 219 222 225 228 231 234 237 240 243 246 249 252 255 258 261 264 267 270 273 276 279 282 285 288 291 294 297 300 303 306 309 312 315 318 321 324 327 330 333 336 339 342 345 348 351 354 357 360 363 366 369 372 375 378 381 384 387 390 393 396 399 402 405 408 411 414 417 420 423 426 429 432 435 438 441 444 447 450 453 456 459 462 465 468 471 474 477 480 483 486 489 492 495 498 501 504 507 510 513 516 519 522 525 528 531 534 537 540 543 546 549 552 555 558 561 564 567 570 573 576 579 582 585 588 591 594 597 600 603 606 
				</DataArray>
			</Polys>
		</Piece>
	</PolyData>
</VTKFile>
