<?xml version="1.0"?>
<VTKFile type="PolyData" version="0.1" byte_order="LittleEndian" compressor="vtkZLibDataCompressor">
	<PolyData>
		<Piece NumberOfPoints="58" NumberOfVerts="0" NumberOfLines="0" NumberOfStrips="0" NumberOfPolys="65">
		<PointData Normals="Normals">
		<DataArray type="Float32" Name="Normals" NumberOfComponents="3" format="ascii">
			-0.807582 -0.201917 -0.554113
			-0.342042 -0.772110 -0.535587
			-0.525949 -0.847842 -0.067388
			-0.909420 -0.220689 -0.352493
			-0.537348  0.141900 -0.831337
			 0.053647 -0.044404 -0.997572
			-0.868915  0.088181 -0.487043
			 0.308862 -0.932583 -0.186800
			 0.003889 -0.932027  0.362369
			 0.603922 -0.214252 -0.767707
			-0.797331 -0.513509  0.317131
			-0.969132 -0.015241 -0.246070
			 0.108960 -0.615590  0.780498
			-0.364747  0.301783 -0.880844
			 0.100203  0.436311 -0.894199
			 0.455994  0.535648 -0.710739
			-0.733998  0.296242 -0.611136
			-0.913397  0.277538 -0.297788
			-0.957350  0.135223 -0.255333
			-0.980520  0.035535 -0.193177
			 0.590055 -0.586729 -0.554602
			 0.357969 -0.494857  0.791817
			 0.638381 -0.221940 -0.737029
			 0.328639 -0.198753  0.923306
			 0.433713  0.268039 -0.860261
			-0.801930 -0.062735  0.594115
			 0.017699 -0.090888  0.995704
			 0.471667 -0.049368  0.880394
			-0.379726  0.628527 -0.678795
			 0.349588  0.812377 -0.466724
			 0.707241  0.613229 -0.351797
			-0.749704  0.653451 -0.104623
			-0.798588  0.355113  0.485954
			 0.710991  0.154545 -0.686009
			 0.567545 -0.058976 -0.821228
			 0.333590  0.097512 -0.937662
			 0.455159 -0.135187 -0.880088
			 0.072934 -0.505644  0.859654
			 0.343794  0.793109 -0.502776
			 0.118306 -0.310089  0.943318
			-0.097796  0.705391  0.702039
			 0.132431  0.285527  0.949177
			 0.628401 -0.018375  0.777673
			 0.108179 -0.357917  0.927466
			 0.429359  0.859885  0.276131
			 0.847789  0.303227  0.435096
			 0.141856  0.037482  0.989177
			 0.982675  0.178370  0.050334
			 0.943021 -0.247659 -0.222210
			 0.829378  0.349820  0.435612
			 0.760067 -0.488872 -0.428138
			 0.646764 -0.687507 -0.330197
			 0.477692 -0.837648  0.264871
			 0.279996 -0.671030  0.686528
			 0.548897  0.122480  0.826868
			 0.283260 -0.608832  0.741004
			 0.372558 -0.333372  0.866062
			 0.896389 -0.350211  0.271734
		</DataArray>
	</PointData>
	<Points>
		<DataArray type="Float32" NumberOfComponents="3" format="ascii">
			-0.004229 -0.004829 -0.005349
			-0.002865 -0.007088 -0.004374
			-0.006566 -0.006003  0.001573
			-0.006273 -0.003629 -0.001097
			-0.001082 -0.000770 -0.008076
			 0.001133 -0.004455 -0.009774
			-0.005474  0.001047 -0.003700
			 0.006614 -0.007032 -0.004328
			 0.004773 -0.005536  0.003206
			 0.007106 -0.004001 -0.005876
			-0.007561 -0.005966  0.005753
			-0.006931 -0.001877  0.000275
			 0.002732 -0.004935  0.007020
			-0.001528  0.003581 -0.006518
			 0.003826  0.001652 -0.006397
			 0.007887  0.001949 -0.005346
			-0.004954  0.002921 -0.003695
			-0.006088  0.003721 -0.001201
			-0.006753  0.002577  0.001461
			-0.006897  0.000436  0.001051
			 0.009807 -0.005806  0.000598
			 0.008344 -0.003842  0.003358
			 0.010636 -0.001410 -0.002988
			 0.005246 -0.002068  0.007247
			 0.010477  0.003011 -0.002384
			-0.007569 -0.000588  0.007151
			 0.002160  0.004144  0.008958
			 0.005470  0.001128  0.007857
			-0.004845  0.006917 -0.002285
			 0.006546  0.005541 -0.000405
			 0.007782  0.005262  0.000603
			-0.004775  0.010536  0.008602
			-0.008121  0.004454  0.007296
			 0.013667 -0.001136 -0.001493
			 0.012193 -0.006238  0.002040
			 0.011771 -0.005209  0.002616
			 0.011350 -0.004180  0.003193
			 0.010140 -0.001575  0.002953
			 0.014586  0.002657 -0.000236
			 0.009727  0.000306  0.003070
			 0.011797  0.003819  0.000077
			 0.003770  0.006495  0.009073
			 0.006820  0.004151  0.007665
			 0.010089  0.002058  0.002748
			 0.004564  0.012108  0.006199
			 0.007044  0.007240  0.004831
			 0.011672  0.002899  0.001768
			 0.017491  0.000246  0.002915
			 0.017426 -0.002605  0.002670
			 0.017281  0.000042  0.004455
			 0.016891 -0.003481  0.002721
			 0.016356 -0.004358  0.002772
			 0.015488 -0.005207  0.003968
			 0.015638 -0.004558  0.004542
			 0.016712 -0.001315  0.005509
			 0.015786 -0.003907  0.005117
			 0.016303 -0.002997  0.005534
			 0.016537 -0.002814  0.004020
		</DataArray>
	</Points>
			<Polys>
				<DataArray type="Int32" Name="connectivity" format="ascii">
					0 1 2 3 
					4 5 1 0 
					0 3 6 
					4 0 6 
					1 7 8 2 
					5 9 7 1 
					3 2 10 11 
					2 8 12 10 
					3 11 6 
					13 14 5 4 
					13 4 6 
					14 15 9 5 
					16 13 6 
					17 16 6 
					18 17 6 
					19 18 6 
					11 19 6 
					7 20 21 8 
					9 22 20 7 
					8 21 23 12 
					15 24 22 9 
					11 10 25 19 
					10 12 26 25 
					12 23 27 26 
					16 28 14 13 
					28 29 15 14 
					29 30 24 15 
					17 31 28 16 
					18 32 31 17 
					19 25 32 18 
					22 33 34 20 
					34 35 36 21 20 
					21 36 37 23 
					24 38 33 22 
					23 37 39 27 
					30 40 38 24 
					25 26 41 32 
					26 27 42 41 
					27 39 43 42 
					31 44 29 28 
					44 45 30 29 
					45 46 40 30 
					32 41 44 31 
					33 47 48 34 
					38 49 47 33 
					34 48 50 35 
					35 50 51 36 
					36 51 52 37 
					37 52 53 39 
					40 54 49 38 
					39 53 55 43 
					46 56 54 40 
					41 42 45 44 
					42 43 46 45 
					43 55 56 46 
					57 48 47 
					57 47 49 
					57 50 48 
					57 49 54 
					57 51 50 
					57 52 51 
					57 53 52 
					57 55 53 
					57 54 56 
					57 56 55 
				</DataArray>
				<DataArray type="Int32" Name="offsets" format="ascii">
					4 8 11 14 18 22 26 30 33 37 40 44 47 50 53 56 59 63 67 71 75 79 83 87 91 95 99 103 107 111 115 120 124 128 132 136 140 144 148 152 156 160 164 168 172 176 180 184 188 192 196 200 204 208 212 215 218 221 224 227 230 233 236 239 242 
				</DataArray>
			</Polys>
		</Piece>
	</PolyData>
</VTKFile>
