<?xml version="1.0"?>
<VTKFile type="PolyData" version="0.1" byte_order="LittleEndian" compressor="vtkZLibDataCompressor">
	<PolyData>
		<Piece NumberOfPoints="42" NumberOfVerts="0" NumberOfLines="0" NumberOfStrips="0" NumberOfPolys="48">
		<PointData Normals="Normals">
		<DataArray type="Float32" Name="Normals" NumberOfComponents="3" format="ascii">
			 0.920424 -0.374089  0.113474
			 0.594821 -0.782703  0.183206
			 0.576123 -0.686739 -0.443250
			 0.972914 -0.132210 -0.189627
			 0.833042 -0.145508  0.533730
			 0.343991 -0.106031  0.932967
			 0.990028 -0.080753  0.115426
			 0.999562  0.028866 -0.006491
			 0.953581 -0.023696  0.300204
			-0.311178 -0.945313 -0.097729
			-0.248582 -0.762334 -0.597540
			-0.764012 -0.316046  0.562495
			 0.374436 -0.341485 -0.862082
			 0.933079  0.112300 -0.341689
			-0.441070 -0.356178 -0.823768
			 0.996155  0.087118 -0.009226
			 0.666230  0.408310  0.624035
			 0.070491  0.493367  0.866960
			 0.933053  0.197172  0.300891
			-0.707813  0.501611  0.497380
			 0.993506  0.026685  0.110608
			-0.771325 -0.400001 -0.495032
			-0.749736 -0.270480 -0.603934
			-0.882015 -0.321025 -0.344952
			-0.641944 -0.140898 -0.753695
			-0.911522  0.120910 -0.393076
			-0.064221  0.267123 -0.961520
			 0.885810  0.259230 -0.384891
			-0.592838  0.389355 -0.704944
			 0.990098  0.138902 -0.020291
			-0.608814  0.327031 -0.722770
			 0.685277  0.704191  0.185770
			 0.150020  0.936062  0.318248
			 0.928953  0.334163  0.159312
			-0.572284  0.818913 -0.043258
			-0.731084  0.386577 -0.562206
			 0.961449  0.274091  0.022119
			-0.811329 -0.066966 -0.580741
			 0.043658  0.788771 -0.613135
			 0.802728  0.547096 -0.237306
			-0.510535  0.732561 -0.450232
			-0.639261  0.536385 -0.551032
		</DataArray>
	</PointData>
	<Points>
		<DataArray type="Float32" NumberOfComponents="3" format="ascii">
			 0.006891 -0.001473  0.000660
			 0.003890 -0.005518  0.001042
			 0.004963 -0.002539 -0.006517
			 0.006978 -0.000139 -0.003091
			 0.005750  0.000954  0.005476
			 0.004261 -0.001703  0.007048
			 0.007134  0.000763  0.002405
			 0.007075  0.000940  0.001030
			 0.007015  0.001340  0.002984
			-0.009871 -0.008856  0.002006
			-0.006400 -0.006064 -0.004010
			-0.012155 -0.004439  0.005003
			 0.001373 -0.002229 -0.013051
			 0.006504  0.000655 -0.006021
			-0.002047 -0.002706 -0.007593
			 0.007251  0.002019  0.000307
			 0.005318  0.003624  0.005716
			 0.002826  0.004696  0.007004
			 0.006897  0.001917  0.003563
			-0.011221  0.001353  0.001211
			 0.007057  0.002069  0.002076
			-0.010294 -0.003841 -0.001900
			-0.008812 -0.002522 -0.004577
			-0.011567 -0.003583  0.000183
			-0.007220 -0.001695 -0.006724
			-0.011552 -0.000480 -0.001346
			 0.001564  0.002100 -0.013089
			 0.005885  0.002215 -0.006998
			-0.003730  0.000832 -0.004866
			 0.007316  0.003033  0.000571
			-0.007727  0.000076 -0.006474
			 0.004915  0.006044  0.003451
			 0.003122  0.007898  0.001641
			 0.006801  0.003035  0.003444
			-0.005395  0.005758  0.000901
			-0.009972  0.000443 -0.003212
			 0.006965  0.003506  0.002304
			-0.009488 -0.001386 -0.003562
			 0.003263  0.006091 -0.007377
			 0.006087  0.004093 -0.003166
			-0.004290  0.004267 -0.002670
			-0.008758  0.000516 -0.004444
		</DataArray>
	</Points>
			<Polys>
				<DataArray type="Int32" Name="connectivity" format="ascii">
					0 1 2 3 
					4 5 1 0 
					6 0 3 7 
					8 4 0 6 
					1 9 10 2 
					5 11 9 1 
					3 2 12 13 
					2 10 14 12 
					7 3 13 15 
					16 17 5 4 
					18 16 4 8 
					17 19 11 5 
					20 6 7 
					20 8 6 
					20 7 15 
					20 18 8 
					9 21 22 10 
					11 23 21 9 
					10 22 24 14 
					19 25 23 11 
					13 12 26 27 
					12 14 28 26 
					15 13 27 29 
					14 24 30 28 
					20 15 29 
					31 32 17 16 
					33 31 16 18 
					32 34 19 17 
					20 33 18 
					34 35 25 19 
					20 29 36 
					20 36 33 
					22 21 37 
					21 23 37 
					24 22 37 
					23 25 37 
					30 24 37 
					25 35 37 
					27 26 38 39 
					26 28 40 38 
					29 27 39 36 
					28 30 41 40 
					41 30 37 
					39 38 32 31 
					36 39 31 33 
					38 40 34 32 
					40 41 35 34 
					35 41 37 
				</DataArray>
				<DataArray type="Int32" Name="offsets" format="ascii">
					4 8 12 16 20 24 28 32 36 40 44 48 51 54 57 60 64 68 72 76 80 84 88 92 95 99 103 107 110 114 117 120 123 126 129 132 135 138 142 146 150 154 157 161 165 169 173 176 
				</DataArray>
			</Polys>
		</Piece>
	</PolyData>
</VTKFile>
