<?xml version="1.0"?>
<VTKFile type="PolyData" version="0.1" byte_order="LittleEndian" compressor="vtkZLibDataCompressor">
	<PolyData>
		<Piece NumberOfPoints="26" NumberOfVerts="0" NumberOfLines="0" NumberOfStrips="0" NumberOfPolys="32">
		<PointData Normals="Normals">
		<DataArray type="Float32" Name="Normals" NumberOfComponents="3" format="ascii">
			 0.073255 -0.668075 -0.740479
			-0.735069 -0.548997 -0.397838
			-0.826377  0.011250 -0.563006
			 0.306148 -0.284845 -0.908370
			 0.199795 -0.581670 -0.788506
			-0.244090 -0.969474  0.023223
			 0.435650 -0.155728 -0.886542
			-0.717345 -0.217408  0.661929
			-0.724460 -0.032526  0.688549
			-0.420537 -0.376461  0.825485
			-0.546482  0.566291 -0.616986
			 0.267673  0.221357 -0.937738
			-0.643642  0.334311  0.688448
			 0.616000 -0.528465 -0.584182
			 0.475298 -0.768626  0.428142
			 0.039010 -0.316783  0.947696
			 0.317825  0.299140 -0.899724
			 0.609297  0.300175 -0.733929
			 0.827895 -0.092402 -0.553220
			-0.207253 -0.030239  0.977820
			 0.170598  0.833885 -0.524912
			-0.220586  0.716764  0.661506
			 0.890925 -0.177980  0.417823
			 0.311981 -0.247895  0.917178
			 0.863512  0.502712  0.040351
			 0.302180  0.208086  0.930262
		</DataArray>
	</PointData>
	<Points>
		<DataArray type="Float32" NumberOfComponents="3" format="ascii">
			 0.000544 -0.004752 -0.002908
			-0.003457 -0.007321 -0.000482
			-0.006776 -0.000403 -0.002139
			 0.001619 -0.004341 -0.003883
			 0.001182 -0.007037 -0.002710
			-0.001581 -0.007597 -0.000865
			 0.003532 -0.002206 -0.002516
			-0.004505 -0.000978  0.003376
			-0.005267  0.001717  0.003214
			-0.003459 -0.003350  0.003526
			-0.003025  0.004059 -0.000787
			 0.001782 -0.000722 -0.003591
			-0.004022  0.004957  0.004081
			 0.005578 -0.004603 -0.001504
			 0.004174 -0.005214  0.000900
			-0.000553 -0.002473  0.004307
			 0.004160  0.001518 -0.002357
			 0.005989  0.002757 -0.002152
			 0.007397 -0.000464 -0.001022
			-0.002075  0.001401  0.003952
			 0.001989  0.006224  0.000509
			-0.000797  0.008315  0.002989
			 0.007255 -0.000478  0.001629
			 0.002631  0.000109  0.004241
			 0.004285  0.005090  0.001624
			 0.001804  0.005297  0.006458
		</DataArray>
	</Points>
			<Polys>
				<DataArray type="Int32" Name="connectivity" format="ascii">
					0 1 2 3 
					4 5 1 0 
					6 0 3 
					6 4 0 
					1 7 8 2 
					5 9 7 1 
					3 2 10 11 
					2 8 12 10 
					6 3 11 
					13 14 5 4 
					6 13 4 
					14 15 9 5 
					6 11 16 
					6 16 17 
					6 17 18 
					6 18 13 
					19 7 9 
					19 8 7 
					19 12 8 
					19 9 15 
					11 10 20 16 
					10 12 21 20 
					19 21 12 
					18 22 14 13 
					22 23 15 14 
					19 15 23 
					16 20 24 17 
					17 24 22 18 
					19 23 25 
					19 25 21 
					20 21 25 24 
					24 25 23 22 
				</DataArray>
				<DataArray type="Int32" Name="offsets" format="ascii">
					4 8 11 14 18 22 26 30 33 37 40 44 47 50 53 56 59 62 65 68 72 76 79 83 87 90 94 98 101 104 108 112 
				</DataArray>
			</Polys>
		</Piece>
	</PolyData>
</VTKFile>
