<VTKFile type="PolyData" version="1.0" byte_order="LittleEndian" header_type="UInt64">
  <PolyData>
    <Piece NumberOfPoints="7056" NumberOfVerts="0" NumberOfLines="0" NumberOfStrips="0" NumberOfPolys="1764">
      <PointData Normals="Normals" TCoords="TCoords">
        <DataArray type="Float32" Name="TCoords" NumberOfComponents="2" format="ascii" RangeMin="0" RangeMax="1.4142135624">
          0.375 0 0.375 0.125 0.4375 0.125
          0.4375 0 0.4375 0.625 0.375 0.625
          0.375 0.75 0.4375 0.75 0.6875 0
          0.625 0 0.625 0.125 0.6875 0.125
          0.375 0.125 0.375 0 0.3125 0
          0.3125 0.125 0.625 0.625 0.5625 0.625
          0.5625 0.75 0.625 0.75 0.5625 0.125
          0.625 0.125 0.625 0 0.5625 0
          0.5625 0.625 0.5 0.625 0.5 0.75
          0.5625 0.75 0.5 0.125 0.5625 0.125
          0.5625 0 0.5 0 0.5 0.625
          0.4375 0.625 0.4375 0.75 0.5 0.75
          0.4375 0.125 0.5 0.125 0.5 0
          0.4375 0 0.1875 0 0.125 0
          0.125 0.125 0.1875 0.125 0.875 0
          0.8125 0 0.8125 0.125 0.875 0.125
          0.25 0 0.1875 0 0.1875 0.125
          0.25 0.125 0.8125 0 0.75 0
          0.75 0.125 0.8125 0.125 0.5 0.375
          0.5 0.4375 0.5625 0.4375 0.5625 0.375
          0.4375 0.375 0.4375 0.4375 0.5 0.4375
          0.5 0.375 0.3125 0 0.25 0
          0.25 0.125 0.3125 0.125 0.75 0
          0.6875 0 0.6875 0.125 0.75 0.125
          0.5 0.3125 0.5 0.375 0.5625 0.375
          0.5625 0.3125 0.4375 0.3125 0.4375 0.375
          0.5 0.375 0.5 0.3125 0.375 0.56242501736
          0.4375 0.56242501736 0.4375 0.5 0.375 0.5
          0.375 0.5 0.4375 0.5 0.43972599506 0.48809400201
          0.38606700301 0.48578599095 0.43972599506 0.26190599799 0.38606700301 0.26421400905
          0.38237199187 0.31850498915 0.4375 0.3125 0.61419701576 0.26082700491
          0.5625 0.26118800044 0.5625 0.3125 0.61419999599 0.3125
          0.5625 0.26118800044 0.5 0.26157298684 0.5 0.3125
          0.5625 0.3125 0.5 0.26157298684 0.43972599506 0.26190599799
          0.4375 0.3125 0.5 0.3125 0.4375 0.4375
          0.38237199187 0.43149501085 0.38606700301 0.48578599095 0.43972599506 0.48809400201
          0.5625 0.4375 0.5625 0.48881199956 0.61419701576 0.48917299509
          0.61419999599 0.4375 0.5 0.4375 0.5 0.48842701316
          0.5625 0.48881199956 0.5625 0.4375 0.4375 0.4375
          0.43972599506 0.48809400201 0.5 0.48842701316 0.5 0.4375
          0.4375 0.375 0.3822259903 0.375 0.38237199187 0.43149501085
          0.4375 0.4375 0.5625 0.375 0.5625 0.4375
          0.61419999599 0.4375 0.61419701576 0.375 0.4375 0.3125
          0.38237199187 0.31850498915 0.3822259903 0.375 0.4375 0.375
          0.5625 0.3125 0.5625 0.375 0.61419701576 0.375
          0.61419999599 0.3125 0.6875 0.125 0.625 0.125
          0.625 0.18757499754 0.6875 0.18755799532 0.5625 0.18750600517
          0.625 0.18757499754 0.625 0.125 0.5625 0.125
          0.5 0.18751099706 0.5625 0.18750600517 0.5625 0.125
          0.5 0.125 0.4375 0.18757499754 0.5 0.18751099706
          0.5 0.125 0.4375 0.125 0.375 0.125
          0.375 0.18757499754 0.4375 0.18757499754 0.4375 0.125
          0.375 0.18757499754 0.375 0.125 0.3125 0.125
          0.3125 0.18757499754 0.25 0.125 0.25 0.18757499754
          0.3125 0.18757499754 0.3125 0.125 0.1875 0.125
          0.1875 0.18757499754 0.25 0.18757499754 0.25 0.125
          0.125 0.125 0.125 0.18757499754 0.1875 0.18757499754
          0.1875 0.125 0.4375 0.56242501736 0.375 0.56242501736
          0.375 0.625 0.4375 0.625 0.5 0.56248897314
          0.4375 0.56242501736 0.4375 0.625 0.5 0.625
          0.5625 0.56249397993 0.5 0.56248897314 0.5 0.625
          0.5625 0.625 0.625 0.56242501736 0.5625 0.56249397993
          0.5625 0.625 0.625 0.625 0.8125 0.125
          0.8125 0.18755799532 0.875 0.18757599592 0.875 0.125
          0.75 0.125 0.75 0.18757499754 0.8125 0.18755799532
          0.8125 0.125 0.6875 0.125 0.6875 0.18755799532
          0.75 0.18757499754 0.75 0.125 0.38606700301 0.26421400905
          0.43972599506 0.26190599799 0.4375 0.25 0.375 0.25
          0.375 0.25 0.4375 0.25 0.4375 0.18757499754
          0.375 0.18757499754 0.43972599506 0.26190599799 0.5 0.26157298684
          0.5 0.25 0.4375 0.25 0.4375 0.25
          0.5 0.25 0.5 0.18751099706 0.4375 0.18757499754
          0.38606700301 0.48578599095 0.38237199187 0.43149501085 0.375 0.4375
          0.375 0.5 0.125 0.25 0.1875 0.25
          0.1875 0.18757499754 0.125 0.18757499754 0.4375 0.56242501736
          0.5 0.56248897314 0.5 0.5 0.4375 0.5
          0.4375 0.5 0.5 0.5 0.5 0.48842701316
          0.43972599506 0.48809400201 0.61419701576 0.26082700491 0.61419999599 0.3125
          0.625 0.3125 0.625 0.25 0.625 0.25
          0.6875 0.25 0.6875 0.18755799532 0.625 0.18757499754
          0.61419999599 0.3125 0.61419701576 0.375 0.625 0.375
          0.625 0.3125 0.6875 0.25 0.75 0.25
          0.75 0.18757499754 0.6875 0.18755799532 0.375 0.18757499754
          0.3125 0.18757499754 0.3125 0.25 0.375 0.25
          0.375 0.25 0.375 0.3125 0.38237199187 0.31850498915
          0.38606700301 0.26421400905 0.61419701576 0.48917299509 0.5625 0.48881199956
          0.5625 0.5 0.625 0.5 0.625 0.5
          0.5625 0.5 0.5625 0.56249397993 0.625 0.56242501736
          0.625 0.18757499754 0.5625 0.18750600517 0.5625 0.25
          0.625 0.25 0.625 0.25 0.5625 0.25
          0.5625 0.26118800044 0.61419701576 0.26082700491 0.5625 0.48881199956
          0.5 0.48842701316 0.5 0.5 0.5625 0.5
          0.5625 0.5 0.5 0.5 0.5 0.56248897314
          0.5625 0.56249397993 0.5625 0.18750600517 0.5 0.18751099706
          0.5 0.25 0.5625 0.25 0.5625 0.25
          0.5 0.25 0.5 0.26157298684 0.5625 0.26118800044
          0.38237199187 0.43149501085 0.3822259903 0.375 0.375 0.375
          0.375 0.4375 0.1875 0.25 0.25 0.25
          0.25 0.18757499754 0.1875 0.18757499754 0.875 0.18757599592
          0.8125 0.18755799532 0.8125 0.25 0.875 0.25
          0.625 0.5 0.625 0.4375 0.61419999599 0.4375
          0.61419701576 0.48917299509 0.3125 0.18757499754 0.25 0.18757499754
          0.25 0.25 0.3125 0.25 0.375 0.3125
          0.375 0.375 0.3822259903 0.375 0.38237199187 0.31850498915
          0.8125 0.18755799532 0.75 0.18757499754 0.75 0.25
          0.8125 0.25 0.625 0.4375 0.625 0.375
          0.61419701576 0.375 0.61419999599 0.4375 0.375 0
          0.4375 0 0.4375 0.125 0.375 0.125
          0.4375 0.625 0.4375 0.75 0.375 0.75
          0.375 0.625 0.6875 0 0.6875 0.125
          0.625 0.125 0.625 0 0.375 0.125
          0.3125 0.125 0.3125 0 0.375 0
          0.625 0.625 0.625 0.75 0.5625 0.75
          0.5625 0.625 0.5625 0.125 0.5625 0
          0.625 0 0.625 0.125 0.5625 0.625
          0.5625 0.75 0.5 0.75 0.5 0.625
          0.5 0.125 0.5 0 0.5625 0
          0.5625 0.125 0.5 0.625 0.5 0.75
          0.4375 0.75 0.4375 0.625 0.4375 0.125
          0.4375 0 0.5 0 0.5 0.125
          0.1875 0 0.1875 0.125 0.125 0.125
          0.125 0 0.875 0 0.875 0.125
          0.8125 0.125 0.8125 0 0.25 0
          0.25 0.125 0.1875 0.125 0.1875 0
          0.8125 0 0.8125 0.125 0.75 0.125
          0.75 0 0.5 0.375 0.5625 0.375
          0.5625 0.4375 0.5 0.4375 0.4375 0.375
          0.5 0.375 0.5 0.4375 0.4375 0.4375
          0.3125 0 0.3125 0.125 0.25 0.125
          0.25 0 0.75 0 0.75 0.125
          0.6875 0.125 0.6875 0 0.5 0.3125
          0.5625 0.3125 0.5625 0.375 0.5 0.375
          0.4375 0.3125 0.5 0.3125 0.5 0.375
          0.4375 0.375 0.375 0.56242501736 0.375 0.5
          0.4375 0.5 0.4375 0.56242501736 0.375 0.5
          0.38606700301 0.48578599095 0.43972599506 0.48809400201 0.4375 0.5
          0.43972599506 0.26190599799 0.4375 0.3125 0.38237199187 0.31850498915
          0.38606700301 0.26421400905 0.61419701576 0.26082700491 0.61419999599 0.3125
          0.5625 0.3125 0.5625 0.26118800044 0.5625 0.26118800044
          0.5625 0.3125 0.5 0.3125 0.5 0.26157298684
          0.5 0.26157298684 0.5 0.3125 0.4375 0.3125
          0.43972599506 0.26190599799 0.4375 0.4375 0.43972599506 0.48809400201
          0.38606700301 0.48578599095 0.38237199187 0.43149501085 0.5625 0.4375
          0.61419999599 0.4375 0.61419701576 0.48917299509 0.5625 0.48881199956
          0.5 0.4375 0.5625 0.4375 0.5625 0.48881199956
          0.5 0.48842701316 0.4375 0.4375 0.5 0.4375
          0.5 0.48842701316 0.43972599506 0.48809400201 0.4375 0.375
          0.4375 0.4375 0.38237199187 0.43149501085 0.3822259903 0.375
          0.5625 0.375 0.61419701576 0.375 0.61419999599 0.4375
          0.5625 0.4375 0.4375 0.3125 0.4375 0.375
          0.3822259903 0.375 0.38237199187 0.31850498915 0.5625 0.3125
          0.61419999599 0.3125 0.61419701576 0.375 0.5625 0.375
          0.6875 0.125 0.6875 0.18755799532 0.625 0.18757499754
          0.625 0.125 0.5625 0.18750600517 0.5625 0.125
          0.625 0.125 0.625 0.18757499754 0.5 0.18751099706
          0.5 0.125 0.5625 0.125 0.5625 0.18750600517
          0.4375 0.18757499754 0.4375 0.125 0.5 0.125
          0.5 0.18751099706 0.375 0.125 0.4375 0.125
          0.4375 0.18757499754 0.375 0.18757499754 0.375 0.18757499754
          0.3125 0.18757499754 0.3125 0.125 0.375 0.125
          0.25 0.125 0.3125 0.125 0.3125 0.18757499754
          0.25 0.18757499754 0.1875 0.125 0.25 0.125
          0.25 0.18757499754 0.1875 0.18757499754 0.125 0.125
          0.1875 0.125 0.1875 0.18757499754 0.125 0.18757499754
          0.4375 0.56242501736 0.4375 0.625 0.375 0.625
          0.375 0.56242501736 0.5 0.56248897314 0.5 0.625
          0.4375 0.625 0.4375 0.56242501736 0.5625 0.56249397993
          0.5625 0.625 0.5 0.625 0.5 0.56248897314
          0.625 0.56242501736 0.625 0.625 0.5625 0.625
          0.5625 0.56249397993 0.8125 0.125 0.875 0.125
          0.875 0.18757599592 0.8125 0.18755799532 0.75 0.125
          0.8125 0.125 0.8125 0.18755799532 0.75 0.18757499754
          0.6875 0.125 0.75 0.125 0.75 0.18757499754
          0.6875 0.18755799532 0.38606700301 0.26421400905 0.375 0.25
          0.4375 0.25 0.43972599506 0.26190599799 0.375 0.25
          0.375 0.18757499754 0.4375 0.18757499754 0.4375 0.25
          0.43972599506 0.26190599799 0.4375 0.25 0.5 0.25
          0.5 0.26157298684 0.4375 0.25 0.4375 0.18757499754
          0.5 0.18751099706 0.5 0.25 0.38606700301 0.48578599095
          0.375 0.5 0.375 0.4375 0.38237199187 0.43149501085
          0.125 0.25 0.125 0.18757499754 0.1875 0.18757499754
          0.1875 0.25 0.4375 0.56242501736 0.4375 0.5
          0.5 0.5 0.5 0.56248897314 0.4375 0.5
          0.43972599506 0.48809400201 0.5 0.48842701316 0.5 0.5
          0.61419701576 0.26082700491 0.625 0.25 0.625 0.3125
          0.61419999599 0.3125 0.625 0.25 0.625 0.18757499754
          0.6875 0.18755799532 0.6875 0.25 0.61419999599 0.3125
          0.625 0.3125 0.625 0.375 0.61419701576 0.375
          0.6875 0.25 0.6875 0.18755799532 0.75 0.18757499754
          0.75 0.25 0.375 0.18757499754 0.375 0.25
          0.3125 0.25 0.3125 0.18757499754 0.375 0.25
          0.38606700301 0.26421400905 0.38237199187 0.31850498915 0.375 0.3125
          0.61419701576 0.48917299509 0.625 0.5 0.5625 0.5
          0.5625 0.48881199956 0.625 0.5 0.625 0.56242501736
          0.5625 0.56249397993 0.5625 0.5 0.625 0.18757499754
          0.625 0.25 0.5625 0.25 0.5625 0.18750600517
          0.625 0.25 0.61419701576 0.26082700491 0.5625 0.26118800044
          0.5625 0.25 0.5625 0.48881199956 0.5625 0.5
          0.5 0.5 0.5 0.48842701316 0.5625 0.5
          0.5625 0.56249397993 0.5 0.56248897314 0.5 0.5
          0.5625 0.18750600517 0.5625 0.25 0.5 0.25
          0.5 0.18751099706 0.5625 0.25 0.5625 0.26118800044
          0.5 0.26157298684 0.5 0.25 0.38237199187 0.43149501085
          0.375 0.4375 0.375 0.375 0.3822259903 0.375
          0.1875 0.25 0.1875 0.18757499754 0.25 0.18757499754
          0.25 0.25 0.875 0.18757599592 0.875 0.25
          0.8125 0.25 0.8125 0.18755799532 0.625 0.5
          0.61419701576 0.48917299509 0.61419999599 0.4375 0.625 0.4375
          0.3125 0.18757499754 0.3125 0.25 0.25 0.25
          0.25 0.18757499754 0.375 0.3125 0.38237199187 0.31850498915
          0.3822259903 0.375 0.375 0.375 0.8125 0.18755799532
          0.8125 0.25 0.75 0.25 0.75 0.18757499754
          0.625 0.4375 0.61419999599 0.4375 0.61419701576 0.375
          0.625 0.375 0.40000000596 0.54166698456 0.42500001192 0.54166698456
          0.44999998808 0.58333301544 0.40000000596 0.58333301544 0.40000000596 0.20833300054
          0.40000000596 0.16666699946 0.44999998808 0.16666699946 0.42500001192 0.20833300054
          0.40000000596 0.125 0.44999998808 0.125 0.44999998808 0.16666699946
          0.40000000596 0.16666699946 0.40000000596 0.083333000541 0.44999998808 0.083333000541
          0.44999998808 0.125 0.40000000596 0.125 0.44999998808 0.041666999459
          0.44999998808 0.083333000541 0.40000000596 0.083333000541 0.40000000596 0.041666999459
          0.44999998808 0.66666698456 0.44999998808 0.70833301544 0.40000000596 0.70833301544
          0.40000000596 0.66666698456 0.44999998808 0.625 0.44999998808 0.66666698456
          0.40000000596 0.66666698456 0.40000000596 0.625 0.44999998808 0.58333301544
          0.44999998808 0.625 0.40000000596 0.625 0.40000000596 0.58333301544
          0.44999998808 0.54166698456 0.47499999404 0.54166698456 0.44999998808 0.58333301544
          0.42500001192 0.54166698456 0.44999998808 0.16666699946 0.47499999404 0.20833300054
          0.44999998808 0.20833300054 0.42500001192 0.20833300054 0.44999998808 0.125
          0.5 0.125 0.5 0.16666699946 0.44999998808 0.16666699946
          0.44999998808 0.083333000541 0.5 0.083333000541 0.5 0.125
          0.44999998808 0.125 0.5 0.041666999459 0.5 0.083333000541
          0.44999998808 0.083333000541 0.44999998808 0.041666999459 0.5 0.66666698456
          0.5 0.70833301544 0.44999998808 0.70833301544 0.44999998808 0.66666698456
          0.5 0.625 0.5 0.66666698456 0.44999998808 0.66666698456
          0.44999998808 0.625 0.44999998808 0.58333301544 0.5 0.58333301544
          0.5 0.625 0.44999998808 0.625 0.47499999404 0.54166698456
          0.5 0.54166698456 0.5 0.58333301544 0.44999998808 0.58333301544
          0.47499999404 0.20833300054 0.44999998808 0.16666699946 0.5 0.16666699946
          0.5 0.20833300054 0.5 0.54166698456 0.52499997616 0.54166698456
          0.55000001192 0.58333301544 0.5 0.58333301544 0.5 0.20833300054
          0.5 0.16666699946 0.55000001192 0.16666699946 0.52499997616 0.20833300054
          0.5 0.125 0.55000001192 0.125 0.55000001192 0.16666699946
          0.5 0.16666699946 0.5 0.083333000541 0.55000001192 0.083333000541
          0.55000001192 0.125 0.5 0.125 0.55000001192 0.041666999459
          0.55000001192 0.083333000541 0.5 0.083333000541 0.5 0.041666999459
          0.55000001192 0.66666698456 0.55000001192 0.70833301544 0.5 0.70833301544
          0.5 0.66666698456 0.55000001192 0.625 0.55000001192 0.66666698456
          0.5 0.66666698456 0.5 0.625 0.55000001192 0.58333301544
          0.55000001192 0.625 0.5 0.625 0.5 0.58333301544
          0.55000001192 0.54166698456 0.57499998808 0.54166698456 0.55000001192 0.58333301544
          0.52499997616 0.54166698456 0.55000001192 0.16666699946 0.57499998808 0.20833300054
          0.55000001192 0.20833300054 0.52499997616 0.20833300054 0.55000001192 0.125
          0.60000002384 0.125 0.60000002384 0.16666699946 0.55000001192 0.16666699946
          0.55000001192 0.083333000541 0.60000002384 0.083333000541 0.60000002384 0.125
          0.55000001192 0.125 0.60000002384 0.041666999459 0.60000002384 0.083333000541
          0.55000001192 0.083333000541 0.55000001192 0.041666999459 0.60000002384 0.66666698456
          0.60000002384 0.70833301544 0.55000001192 0.70833301544 0.55000001192 0.66666698456
          0.60000002384 0.625 0.60000002384 0.66666698456 0.55000001192 0.66666698456
          0.55000001192 0.625 0.55000001192 0.58333301544 0.60000002384 0.58333301544
          0.60000002384 0.625 0.55000001192 0.625 0.57499998808 0.54166698456
          0.60000002384 0.54166698456 0.60000002384 0.58333301544 0.55000001192 0.58333301544
          0.57499998808 0.20833300054 0.55000001192 0.16666699946 0.60000002384 0.16666699946
          0.60000002384 0.20833300054 0.55000001192 0.70833301544 0.60000002384 0.70833301544
          0.57499998808 0.71354198456 0.53750002384 0.71354198456 0.5 0.70833301544
          0.55000001192 0.70833301544 0.53750002384 0.71354198456 0.5 0.71354198456
          0.44999998808 0.70833301544 0.5 0.70833301544 0.5 0.71354198456
          0.46250000596 0.71354198456 0.40000000596 0.70833301544 0.44999998808 0.70833301544
          0.46250000596 0.71354198456 0.42500001192 0.71354198456 0.44999998808 0.041666999459
          0.40000000596 0.041666999459 0.42500001192 0.036458000541 0.46250000596 0.036458000541
          0.5 0.041666999459 0.44999998808 0.041666999459 0.46250000596 0.036458000541
          0.5 0.036458000541 0.55000001192 0.041666999459 0.5 0.041666999459
          0.5 0.036458000541 0.53750002384 0.036458000541 0.60000002384 0.041666999459
          0.55000001192 0.041666999459 0.53750002384 0.036458000541 0.57499998808 0.036458000541
          0.5 0.72916698456 0.47499999404 0.734375 0.48750001192 0.734375
          0.5 0.72916698456 0.5 0.72916698456 0.48750001192 0.734375
          0.5 0.734375 0.5 0.72916698456 0.5 0.72916698456
          0.5 0.734375 0.51249998808 0.734375 0.5 0.72916698456
          0.5 0.72916698456 0.51249998808 0.734375 0.52499997616 0.734375
          0.5 0.72916698456 0.5 0.020833000541 0.52499997616 0.015625
          0.51249998808 0.015625 0.5 0.020833000541 0.5 0.020833000541
          0.51249998808 0.015625 0.5 0.015625 0.5 0.020833000541
          0.5 0.020833000541 0.5 0.015625 0.48750001192 0.015625
          0.5 0.020833000541 0.5 0.020833000541 0.48750001192 0.015625
          0.47499999404 0.015625 0.5 0.020833000541 0.52499997616 0.72395801544
          0.5 0.72916698456 0.5 0.72916698456 0.51249998808 0.72395801544
          0.51249998808 0.72395801544 0.5 0.72916698456 0.5 0.72916698456
          0.5 0.72395801544 0.5 0.72395801544 0.5 0.72916698456
          0.5 0.72916698456 0.48750001192 0.72395801544 0.48750001192 0.72395801544
          0.5 0.72916698456 0.5 0.72916698456 0.47499999404 0.72395801544
          0.47499999404 0.026041999459 0.5 0.020833000541 0.5 0.020833000541
          0.48750001192 0.026041999459 0.48750001192 0.026041999459 0.5 0.020833000541
          0.5 0.020833000541 0.5 0.026041999459 0.5 0.026041999459
          0.5 0.020833000541 0.5 0.020833000541 0.51249998808 0.026041999459
          0.51249998808 0.026041999459 0.5 0.020833000541 0.5 0.020833000541
          0.52499997616 0.026041999459 0.55000001192 0.71875 0.52499997616 0.72395801544
          0.51249998808 0.72395801544 0.52499997616 0.71875 0.52499997616 0.71875
          0.51249998808 0.72395801544 0.5 0.72395801544 0.5 0.71875
          0.5 0.71875 0.5 0.72395801544 0.48750001192 0.72395801544
          0.47499999404 0.71875 0.47499999404 0.71875 0.48750001192 0.72395801544
          0.47499999404 0.72395801544 0.44999998808 0.71875 0.44999998808 0.03125
          0.47499999404 0.026041999459 0.48750001192 0.026041999459 0.47499999404 0.03125
          0.47499999404 0.03125 0.48750001192 0.026041999459 0.5 0.026041999459
          0.5 0.03125 0.5 0.03125 0.5 0.026041999459
          0.51249998808 0.026041999459 0.52499997616 0.03125 0.52499997616 0.03125
          0.51249998808 0.026041999459 0.52499997616 0.026041999459 0.55000001192 0.03125
          0.57499998808 0.71354198456 0.55000001192 0.71875 0.52499997616 0.71875
          0.53750002384 0.71354198456 0.53750002384 0.71354198456 0.52499997616 0.71875
          0.5 0.71875 0.5 0.71354198456 0.5 0.71354198456
          0.5 0.71875 0.47499999404 0.71875 0.46250000596 0.71354198456
          0.46250000596 0.71354198456 0.47499999404 0.71875 0.44999998808 0.71875
          0.42500001192 0.71354198456 0.42500001192 0.036458000541 0.44999998808 0.03125
          0.47499999404 0.03125 0.46250000596 0.036458000541 0.46250000596 0.036458000541
          0.47499999404 0.03125 0.5 0.03125 0.5 0.036458000541
          0.5 0.036458000541 0.5 0.03125 0.52499997616 0.03125
          0.53750002384 0.036458000541 0.53750002384 0.036458000541 0.52499997616 0.03125
          0.55000001192 0.03125 0.57499998808 0.036458000541 0.42500001192 0.18157500029
          0.40000000596 0.18157500029 0.40000000596 0.10894499719 0.44999998808 0.10894499719
          0.44999998808 0.18157500029 0.42500001192 0.18157500029 0.44999998808 0.10894499719
          0.47499999404 0.18157500029 0.5 0.18157500029 0.47499999404 0.18157500029
          0.44999998808 0.10894499719 0.5 0.10894499719 0.52499997616 0.18157500029
          0.5 0.18157500029 0.5 0.10894499719 0.55000001192 0.10894499719
          0.55000001192 0.18157500029 0.52499997616 0.18157500029 0.55000001192 0.10894499719
          0.57499998808 0.18157500029 0.60000002384 0.18157500029 0.57499998808 0.18157500029
          0.55000001192 0.10894499719 0.60000002384 0.10894499719 0.60000002384 0.64105498791
          0.57499998808 0.64105498791 0.57499998808 0.56842499971 0.60000002384 0.56842499971
          0.57499998808 0.64105498791 0.55000001192 0.64105498791 0.55000001192 0.56842499971
          0.57499998808 0.56842499971 0.55000001192 0.64105498791 0.52499997616 0.64105498791
          0.52499997616 0.56842499971 0.55000001192 0.56842499971 0.52499997616 0.64105498791
          0.5 0.64105498791 0.5 0.56842499971 0.52499997616 0.56842499971
          0.5 0.64105498791 0.47499999404 0.64105498791 0.47499999404 0.56842499971
          0.5 0.56842499971 0.47499999404 0.64105498791 0.44999998808 0.64105498791
          0.44999998808 0.56842499971 0.47499999404 0.56842499971 0.44999998808 0.64105498791
          0.42500001192 0.64105498791 0.42500001192 0.56842499971 0.44999998808 0.56842499971
          0.42500001192 0.64105498791 0.40000000596 0.64105498791 0.40000000596 0.56842499971
          0.42500001192 0.56842499971 0.44999998808 0.10894499719 0.40000000596 0.10894499719
          0.40357100964 0.094126001 0.45178601146 0.094126001 0.44999998808 0.10894499719
          0.45178601146 0.094126001 0.5 0.094126001 0.5 0.10894499719
          0.55000001192 0.10894499719 0.5 0.10894499719 0.5 0.094126001
          0.54821401834 0.094126001 0.55000001192 0.10894499719 0.54821401834 0.094126001
          0.59642899036 0.094126001 0.60000002384 0.10894499719 0.59642899036 0.6558740139
          0.54821401834 0.6558740139 0.57499998808 0.64105498791 0.60000002384 0.64105498791
          0.55000001192 0.64105498791 0.57499998808 0.64105498791 0.54821401834 0.6558740139
          0.52499997616 0.64105498791 0.54821401834 0.6558740139 0.5 0.6558740139
          0.5 0.64105498791 0.52499997616 0.64105498791 0.5 0.6558740139
          0.45178601146 0.6558740139 0.47499999404 0.64105498791 0.5 0.64105498791
          0.44999998808 0.64105498791 0.47499999404 0.64105498791 0.45178601146 0.6558740139
          0.42500001192 0.64105498791 0.45178601146 0.6558740139 0.40357100964 0.6558740139
          0.40000000596 0.64105498791 0.42500001192 0.64105498791 0.375 0.29349699616
          0.375 0.25 0.40000000596 0.25 0.40000000596 0.29349699616
          0.375 0.25 0.3874990046 0.23099499941 0.40787899494 0.23753300309
          0.40000000596 0.25 0.16849699616 0.18157500029 0.125 0.18157500029
          0.125 0.10894499719 0.16852399707 0.10894499719 0.375 0.56842499971
          0.38553801179 0.56947499514 0.38557600975 0.64114302397 0.375 0.64105498791
          0.61446201801 0.56947499514 0.625 0.56842499971 0.625 0.64105498791
          0.61442399025 0.64114302397 0.875 0.18157500029 0.83150297403 0.18157500029
          0.83147501945 0.10894499719 0.875 0.10894499719 0.375 0.29349699616
          0.375 0.25 0.40000000596 0.25 0.40000000596 0.29349699616
          0.375 0.25 0.38080000877 0.24508599937 0.40351399779 0.24724400043
          0.40000000596 0.25 0.38080000877 0.50491398573 0.375 0.5
          0.40000000596 0.5 0.40351399779 0.50275599957 0.375 0.5
          0.375 0.45650300384 0.40000000596 0.45650300384 0.40000000596 0.5
          0.66849702597 0.25 0.625 0.25 0.625 0.20833300054
          0.66849702597 0.20833300054 0.625 0.25 0.61919999123 0.24508599937
          0.62053102255 0.2080720067 0.625 0.20833300054 0.6205149889 0.66649800539
          0.625 0.66666698456 0.625 0.70833301544 0.61964702606 0.70809197426
          0.875 0.083333000541 0.83150297403 0.083333000541 0.83147901297 0.041662998497
          0.875 0.041666999459 0.3794850111 0.08350200206 0.375 0.083333000541
          0.375 0.041666999459 0.38035300374 0.041907001287 0.375 0.083333000541
          0.33150300384 0.083333000541 0.33150199056 0.041678000242 0.375 0.041666999459
          0.38553801179 0.18052500486 0.40000000596 0.18157500029 0.40787899494 0.23753300309
          0.3874990046 0.23099499941 0.375 0.29349699616 0.40000000596 0.29349699616
          0.40000000596 0.45650300384 0.375 0.45650300384 0.3874990046 0.51900500059
          0.40787899494 0.51246702671 0.40000000596 0.56842499971 0.38553801179 0.56947499514
          0.66849702597 0.18157500029 0.83150297403 0.18157500029 0.83150297403 0.25
          0.66849702597 0.25 0.16849699616 0.18157500029 0.33150300384 0.18157500029
          0.33150300384 0.25 0.16849699616 0.25 0.60000002384 0.29349699616
          0.625 0.29349699616 0.625 0.45650300384 0.60000002384 0.45650300384
          0.60000002384 0.20833300054 0.62053102255 0.2080720067 0.61919999123 0.24508599937
          0.5964859724 0.24724400043 0.16849699616 0.20833300054 0.33150300384 0.20833300054
          0.33150300384 0.25 0.16849699616 0.25 0.5964859724 0.50275599957
          0.61919999123 0.50491398573 0.62053102255 0.5419279933 0.60000002384 0.54166698456
          0.66849702597 0.20833300054 0.83150297403 0.20833300054 0.83150297403 0.25
          0.66849702597 0.25 0.60000002384 0.20833300054 0.60000002384 0.16666699946
          0.62082600594 0.16661299765 0.62053102255 0.2080720067 0.16849699616 0.16666699946
          0.33150300384 0.16666699946 0.33150300384 0.20833300054 0.16849699616 0.20833300054
          0.60000002384 0.54166698456 0.62053102255 0.5419279933 0.62082600594 0.58338701725
          0.60000002384 0.58333301544 0.66849702597 0.16666699946 0.83150297403 0.16666699946
          0.83150297403 0.20833300054 0.66849702597 0.20833300054 0.60000002384 0.125
          0.62082600594 0.12504899502 0.62082600594 0.16661299765 0.60000002384 0.16666699946
          0.16849699616 0.125 0.33150199056 0.125 0.33150300384 0.16666699946
          0.16849699616 0.16666699946 0.60000002384 0.58333301544 0.62082600594 0.58338701725
          0.62082600594 0.62495100498 0.60000002384 0.625 0.66849702597 0.125
          0.83150202036 0.125 0.83150297403 0.16666699946 0.66849702597 0.16666699946
          0.60000002384 0.083333000541 0.6205149889 0.08350200206 0.62082600594 0.12504899502
          0.60000002384 0.125 0.16849699616 0.083333000541 0.33150300384 0.083333000541
          0.33150199056 0.125 0.16849699616 0.125 0.60000002384 0.625
          0.62082600594 0.62495100498 0.6205149889 0.66649800539 0.60000002384 0.66666698456
          0.66849702597 0.083333000541 0.83150297403 0.083333000541 0.83150202036 0.125
          0.66849702597 0.125 0.60000002384 0.041666999459 0.61964702606 0.041905999184
          0.6205149889 0.08350200206 0.60000002384 0.083333000541 0.16852100194 0.041662998497
          0.33150199056 0.041678000242 0.33150300384 0.083333000541 0.16849699616 0.083333000541
          0.60000002384 0.66666698456 0.6205149889 0.66649800539 0.61964702606 0.70809197426
          0.60000002384 0.70833301544 0.66849797964 0.041678000242 0.83147901297 0.041662998497
          0.83150297403 0.083333000541 0.66849702597 0.083333000541 0.37917301059 0.12504899502
          0.40000000596 0.125 0.40000000596 0.16666699946 0.37917399406 0.16661299765
          0.3794850111 0.08350200206 0.40000000596 0.083333000541 0.40000000596 0.125
          0.37917301059 0.12504899502 0.38035300374 0.041907001287 0.40000000596 0.041666999459
          0.40000000596 0.083333000541 0.3794850111 0.08350200206 0.59212100506 0.23753300309
          0.60000002384 0.18157500029 0.61446201801 0.18052500486 0.6125010252 0.23099499941
          0.60000002384 0.45650300384 0.60000002384 0.29349699616 0.625 0.29349699616
          0.625 0.45650300384 0.61446201801 0.56947499514 0.60000002384 0.56842499971
          0.59212100506 0.51246702671 0.6125010252 0.51900500059 0.3794850111 0.66649800539
          0.40000000596 0.66666698456 0.40000000596 0.70833301544 0.38035300374 0.70809197426
          0.37917399406 0.62495100498 0.40000000596 0.625 0.40000000596 0.66666698456
          0.3794850111 0.66649800539 0.37917301059 0.58338701725 0.40000000596 0.58333301544
          0.40000000596 0.625 0.37917399406 0.62495100498 0.37946900725 0.5419279933
          0.40000000596 0.54166698456 0.40000000596 0.58333301544 0.37917301059 0.58338701725
          0.38080000877 0.50491398573 0.40351399779 0.50275599957 0.40000000596 0.54166698456
          0.37946900725 0.5419279933 0.375 0.29349699616 0.40000000596 0.29349699616
          0.40000000596 0.45650300384 0.375 0.45650300384 0.37946900725 0.2080720067
          0.40000000596 0.20833300054 0.40351399779 0.24724400043 0.38080000877 0.24508599937
          0.37917399406 0.16661299765 0.40000000596 0.16666699946 0.40000000596 0.20833300054
          0.37946900725 0.2080720067 0.57009202242 0.2401600033 0.57499998808 0.18157500029
          0.60000002384 0.18157500029 0.59212100506 0.23753300309 0.57499998808 0.45650300384
          0.57499998808 0.29349699616 0.60000002384 0.29349699616 0.60000002384 0.45650300384