<VTKFile type="PolyData" version="1.0" byte_order="LittleEndian" header_type="UInt64">
  <PolyData>
    <Piece NumberOfPoints="11014" NumberOfVerts="0" NumberOfLines="0" NumberOfStrips="0" NumberOfPolys="2754">
      <PointData Normals="Normals" TCoords="TCoords">
        <DataArray type="Float32" Name="TCoords" NumberOfComponents="2" format="ascii" RangeMin="0" RangeMax="1.4142135624">
          0.52989697456 0.084072001278 0.55524301529 0.10100699961 0.5 0.15000000596
          0.5 0.078125 0.47010299563 0.084072001278 0.5 0.078125
          0.5 0.15000000596 0.44475799799 0.10100699961 0.42782199383 0.12635299563
          0.44475799799 0.10100699961 0.5 0.15000000596 0.421875 0.15625
          0.42782199383 0.18614600599 0.421875 0.15625 0.5 0.15000000596
          0.44475701451 0.21149300039 0.47010299563 0.22842800617 0.44475701451 0.21149300039
          0.5 0.15000000596 0.5 0.234375 0.52989697456 0.22842800617
          0.5 0.234375 0.5 0.15000000596 0.55524301529 0.21149300039
          0.57217800617 0.18614700437 0.55524301529 0.21149300039 0.5 0.15000000596
          0.578125 0.15625 0.57217800617 0.12635299563 0.578125 0.15625
          0.5 0.15000000596 0.55524301529 0.10100699961 0.55524301529 0.10100699961
          0.57217800617 0.12635299563 0.57217800617 0.12635299563 0.55524301529 0.10100699961
          0.52989697456 0.084072001278 0.55524301529 0.10100699961 0.55524301529 0.10100699961
          0.52989697456 0.084072001278 0.5 0.078125 0.52989697456 0.084072001278
          0.52989697456 0.084072001278 0.5 0.078125 0.47010299563 0.084072001278
          0.5 0.078125 0.5 0.078125 0.47010299563 0.084072001278
          0.44475799799 0.10100699961 0.47010299563 0.084072001278 0.47010299563 0.084072001278
          0.44475799799 0.10100699961 0.42782199383 0.12635299563 0.44475799799 0.10100699961
          0.44475799799 0.10100699961 0.42782199383 0.12635299563 0.421875 0.15625
          0.42782199383 0.12635299563 0.42782199383 0.12635299563 0.421875 0.15625
          0.42782199383 0.18614600599 0.421875 0.15625 0.421875 0.15625
          0.42782199383 0.18614600599 0.44475701451 0.21149300039 0.42782199383 0.18614600599
          0.42782199383 0.18614600599 0.44475701451 0.21149300039 0.47010299563 0.22842800617
          0.44475701451 0.21149300039 0.44475701451 0.21149300039 0.47010299563 0.22842800617
          0.5 0.234375 0.47010299563 0.22842800617 0.47010299563 0.22842800617
          0.5 0.234375 0.52989697456 0.22842800617 0.5 0.234375
          0.5 0.234375 0.52989697456 0.22842800617 0.55524301529 0.21149300039
          0.52989697456 0.22842800617 0.52989697456 0.22842800617 0.55524301529 0.21149300039
          0.57217800617 0.18614700437 0.55524301529 0.21149300039 0.55524301529 0.21149300039
          0.57217800617 0.18614700437 0.578125 0.15625 0.57217800617 0.18614700437
          0.57217800617 0.18614700437 0.578125 0.15625 0.57217800617 0.12635299563
          0.578125 0.15625 0.578125 0.15625 0.57217800617 0.12635299563
          0.55524301529 0.10100699961 0.57217800617 0.12635299563 0.57217800617 0.12635299563
          0.55524301529 0.10100699961 0.52989697456 0.084072001278 0.55524301529 0.10100699961
          0.55524301529 0.10100699961 0.52989697456 0.084072001278 0.5 0.078125
          0.52989697456 0.084072001278 0.52989697456 0.084072001278 0.5 0.078125
          0.47010299563 0.084072001278 0.5 0.078125 0.5 0.078125
          0.47010299563 0.084072001278 0.44475799799 0.10100699961 0.47010299563 0.084072001278
          0.47010299563 0.084072001278 0.44475799799 0.10100699961 0.42782199383 0.12635299563
          0.44475799799 0.10100699961 0.44475799799 0.10100699961 0.42782199383 0.12635299563
          0.421875 0.15625 0.42782199383 0.12635299563 0.42782199383 0.12635299563
          0.421875 0.15625 0.42782199383 0.18614600599 0.421875 0.15625
          0.421875 0.15625 0.42782199383 0.18614600599 0.44475701451 0.21149300039
          0.42782199383 0.18614600599 0.42782199383 0.18614600599 0.44475701451 0.21149300039
          0.47010299563 0.22842800617 0.44475701451 0.21149300039 0.44475701451 0.21149300039
          0.47010299563 0.22842800617 0.5 0.234375 0.47010299563 0.22842800617
          0.47010299563 0.22842800617 0.5 0.234375 0.52989697456 0.22842800617
          0.5 0.234375 0.5 0.234375 0.52989697456 0.22842800617
          0.55524301529 0.21149300039 0.52989697456 0.22842800617 0.52989697456 0.22842800617
          0.55524301529 0.21149300039 0.57217800617 0.18614700437 0.55524301529 0.21149300039
          0.55524301529 0.21149300039 0.57217800617 0.18614700437 0.578125 0.15625
          0.57217800617 0.18614700437 0.57217800617 0.18614700437 0.578125 0.15625
          0.57217800617 0.12635299563 0.578125 0.15625 0.578125 0.15625
          0.57217800617 0.12635299563 0.58042401075 0.12293799967 0.57217800617 0.12635299563
          0.55524301529 0.10100699961 0.56155401468 0.094696000218 0.57217800617 0.12635299563
          0.57217800617 0.12635299563 0.55524301529 0.10100699961 0.55524301529 0.10100699961
          0.56155401468 0.094696000218 0.55524301529 0.10100699961 0.52989697456 0.084072001278
          0.53331297636 0.075825996697 0.55524301529 0.10100699961 0.55524301529 0.10100699961
          0.52989697456 0.084072001278 0.52989697456 0.084072001278 0.53331297636 0.075825996697
          0.52989697456 0.084072001278 0.5 0.078125 0.5 0.069200001657
          0.52989697456 0.084072001278 0.52989697456 0.084072001278 0.5 0.078125
          0.5 0.078125 0.5 0.069200001657 0.5 0.078125
          0.47010299563 0.084072001278 0.46668699384 0.075825996697 0.5 0.078125
          0.5 0.078125 0.47010299563 0.084072001278 0.47010299563 0.084072001278
          0.46668699384 0.075825996697 0.47010299563 0.084072001278 0.44475799799 0.10100699961
          0.43844598532 0.094696000218 0.47010299563 0.084072001278 0.47010299563 0.084072001278
          0.44475799799 0.10100699961 0.44475799799 0.10100699961 0.43844598532 0.094696000218
          0.44475799799 0.10100699961 0.42782199383 0.12635299563 0.41957598925 0.12293700129
          0.44475799799 0.10100699961 0.44475799799 0.10100699961 0.42782199383 0.12635299563
          0.42782199383 0.12635299563 0.41957598925 0.12293700129 0.42782199383 0.12635299563
          0.421875 0.15625 0.41295000911 0.15625 0.42782199383 0.12635299563
          0.42782199383 0.12635299563 0.421875 0.15625 0.421875 0.15625
          0.41295000911 0.15625 0.421875 0.15625 0.42782199383 0.18614600599
          0.41957598925 0.18956199288 0.421875 0.15625 0.421875 0.15625
          0.42782199383 0.18614600599 0.42782199383 0.18614600599 0.41957598925 0.18956199288
          0.42782199383 0.18614600599 0.44475701451 0.21149300039 0.43844598532 0.21780399978
          0.42782199383 0.18614600599 0.42782199383 0.18614600599 0.44475701451 0.21149300039
          0.44475701451 0.21149300039 0.43844598532 0.21780399978 0.44475701451 0.21149300039
          0.47010299563 0.22842800617 0.46668699384 0.23667399585 0.44475701451 0.21149300039
          0.44475701451 0.21149300039 0.47010299563 0.22842800617 0.47010299563 0.22842800617
          0.46668699384 0.23667399585 0.47010299563 0.22842800617 0.5 0.234375
          0.5 0.24330000579 0.47010299563 0.22842800617 0.47010299563 0.22842800617
          0.5 0.234375 0.5 0.234375 0.5 0.24330000579
          0.5 0.234375 0.52989697456 0.22842800617 0.53331297636 0.23667399585
          0.5 0.234375 0.5 0.234375 0.52989697456 0.22842800617
          0.52989697456 0.22842800617 0.53331297636 0.23667399585 0.52989697456 0.22842800617
          0.55524301529 0.21149300039 0.56155401468 0.21780399978 0.52989697456 0.22842800617
          0.52989697456 0.22842800617 0.55524301529 0.21149300039 0.55524301529 0.21149300039
          0.56155401468 0.21780399978 0.55524301529 0.21149300039 0.57217800617 0.18614700437
          0.58042401075 0.18956199288 0.55524301529 0.21149300039 0.55524301529 0.21149300039
          0.57217800617 0.18614700437 0.57217800617 0.18614700437 0.58042401075 0.18956199288
          0.57217800617 0.18614700437 0.578125 0.15625 0.58705002069 0.15625
          0.57217800617 0.18614700437 0.57217800617 0.18614700437 0.578125 0.15625
          0.578125 0.15625 0.57217800617 0.12635299563 0.57217800617 0.12635299563
          0.578125 0.15625 0.578125 0.15625 0.57217800617 0.12635299563
          0.58042401075 0.12293799967 0.58705002069 0.15625 0.578125 0.15625
          0.57217800617 0.12635299563 0.57217800617 0.12635299563 0.55524301529 0.10100699961
          0.55524301529 0.10100699961 0.57217800617 0.12635299563 0.57217800617 0.12635299563
          0.55524301529 0.10100699961 0.55524301529 0.10100699961 0.55524301529 0.10100699961
          0.55524301529 0.10100699961 0.52989697456 0.084072001278 0.52989697456 0.084072001278
          0.55524301529 0.10100699961 0.55524301529 0.10100699961 0.52989697456 0.084072001278
          0.52989697456 0.084072001278 0.52989697456 0.084072001278 0.52989697456 0.084072001278
          0.5 0.078125 0.5 0.078125 0.52989697456 0.084072001278
          0.52989697456 0.084072001278 0.5 0.078125 0.5 0.078125
          0.5 0.078125 0.5 0.078125 0.47010299563 0.084072001278
          0.47010299563 0.084072001278 0.5 0.078125 0.5 0.078125
          0.47010299563 0.084072001278 0.47010299563 0.084072001278 0.47010299563 0.084072001278
          0.47010299563 0.084072001278 0.44475799799 0.10100699961 0.44475799799 0.10100699961
          0.47010299563 0.084072001278 0.47010299563 0.084072001278 0.44475799799 0.10100699961
          0.44475799799 0.10100699961 0.44475799799 0.10100699961 0.44475799799 0.10100699961
          0.42782199383 0.12635299563 0.42782199383 0.12635299563 0.44475799799 0.10100699961
          0.44475799799 0.10100699961 0.42782199383 0.12635299563 0.42782199383 0.12635299563
          0.42782199383 0.12635299563 0.42782199383 0.12635299563 0.421875 0.15625
          0.421875 0.15625 0.42782199383 0.12635299563 0.42782199383 0.12635299563
          0.421875 0.15625 0.421875 0.15625 0.421875 0.15625
          0.421875 0.15625 0.42782199383 0.18614600599 0.42782199383 0.18614600599
          0.421875 0.15625 0.421875 0.15625 0.42782199383 0.18614600599
          0.42782199383 0.18614600599 0.42782199383 0.18614600599 0.42782199383 0.18614600599
          0.44475701451 0.21149300039 0.44475701451 0.21149300039 0.42782199383 0.18614600599
          0.42782199383 0.18614600599 0.44475701451 0.21149300039 0.44475701451 0.21149300039
          0.44475701451 0.21149300039 0.44475701451 0.21149300039 0.47010299563 0.22842800617
          0.47010299563 0.22842800617 0.44475701451 0.21149300039 0.44475701451 0.21149300039
          0.47010299563 0.22842800617 0.47010299563 0.22842800617 0.47010299563 0.22842800617
          0.47010299563 0.22842800617 0.5 0.234375 0.5 0.234375
          0.47010299563 0.22842800617 0.47010299563 0.22842800617 0.5 0.234375
          0.5 0.234375 0.5 0.234375 0.5 0.234375
          0.52989697456 0.22842800617 0.52989697456 0.22842800617 0.5 0.234375
          0.5 0.234375 0.52989697456 0.22842800617 0.52989697456 0.22842800617
          0.52989697456 0.22842800617 0.52989697456 0.22842800617 0.55524301529 0.21149300039
          0.55524301529 0.21149300039 0.52989697456 0.22842800617 0.52989697456 0.22842800617
          0.55524301529 0.21149300039 0.55524301529 0.21149300039 0.55524301529 0.21149300039
          0.55524301529 0.21149300039 0.57217800617 0.18614700437 0.57217800617 0.18614700437
          0.55524301529 0.21149300039 0.55524301529 0.21149300039 0.57217800617 0.18614700437
          0.57217800617 0.18614700437 0.57217800617 0.18614700437 0.57217800617 0.18614700437
          0.578125 0.15625 0.578125 0.15625 0.57217800617 0.18614700437
          0.57217800617 0.18614700437 0.578125 0.15625 0.578125 0.15625
          0.57217800617 0.12635299563 0.57217800617 0.12635299563 0.578125 0.15625
          0.578125 0.15625 0.57217800617 0.12635299563 0.57217800617 0.12635299563
          0.578125 0.15625 0.578125 0.15625 0.375 0.32882800698
          0.390625 0.32882800698 0.390625 0.68844002485 0.375 0.68844002485
          0.390625 0.32882800698 0.40625 0.32882800698 0.40625 0.68844002485
          0.390625 0.68844002485 0.40625 0.32882800698 0.421875 0.32882800698
          0.421875 0.68844002485 0.40625 0.68844002485 0.421875 0.32882800698
          0.4375 0.32882800698 0.4375 0.68844002485 0.421875 0.68844002485
          0.4375 0.32882800698 0.453125 0.32882800698 0.453125 0.68844002485
          0.4375 0.68844002485 0.453125 0.32882800698 0.46875 0.32882800698
          0.46875 0.68844002485 0.453125 0.68844002485 0.46875 0.32882800698
          0.484375 0.32882800698 0.484375 0.68844002485 0.46875 0.68844002485
          0.484375 0.32882800698 0.5 0.32882800698 0.5 0.68844002485
          0.484375 0.68844002485 0.5 0.32882800698 0.515625 0.32882800698
          0.515625 0.68844002485 0.5 0.68844002485 0.515625 0.32882800698
          0.53125 0.32882800698 0.53125 0.68844002485 0.515625 0.68844002485
          0.53125 0.32882800698 0.546875 0.32882800698 0.546875 0.68844002485
          0.53125 0.68844002485 0.546875 0.32882800698 0.5625 0.32882800698
          0.5625 0.68844002485 0.546875 0.68844002485 0.5625 0.32882800698
          0.578125 0.32882800698 0.578125 0.68844002485 0.5625 0.68844002485
          0.578125 0.32882800698 0.59375 0.32882800698 0.59375 0.68844002485
          0.578125 0.68844002485 0.59375 0.32882800698 0.609375 0.32882800698
          0.609375 0.68844002485 0.59375 0.68844002485 0.609375 0.32882800698
          0.625 0.32882800698 0.625 0.68844002485 0.609375 0.68844002485
          0.58042401075 0.12293799967 0.56155401468 0.094696000218 0.60070002079 0.055550001562
          0.63157099485 0.10175199807 0.56155401468 0.094696000218 0.53331297636 0.075825996697
          0.55449897051 0.024678999558 0.60070002079 0.055550001562 0.53331297636 0.075825996697
          0.5 0.069200001657 0.5 0.013837999664 0.55449897051 0.024678999558
          0.5 0.069200001657 0.46668699384 0.075825996697 0.44550201297 0.024678999558
          0.5 0.013837999664 0.46668699384 0.075825996697 0.43844598532 0.094696000218
          0.39930000901 0.055550001562 0.44550201297 0.024678999558 0.43844598532 0.094696000218
          0.41957598925 0.12293700129 0.36842900515 0.10175199807 0.39930000901 0.055550001562
          0.41957598925 0.12293700129 0.41295000911 0.15625 0.35758799314 0.15625
          0.36842900515 0.10175199807 0.41295000911 0.15625 0.41957598925 0.18956199288
          0.36842900515 0.21074800193 0.35758799314 0.15625 0.41957598925 0.18956199288
          0.43844598532 0.21780399978 0.39930000901 0.25694999099 0.36842900515 0.21074800193
          0.43844598532 0.21780399978 0.46668699384 0.23667399585 0.44550201297 0.28782099485
          0.39930000901 0.25694999099 0.46668699384 0.23667399585 0.5 0.24330000579
          0.5 0.29866200686 0.44550201297 0.28782099485 0.5 0.24330000579
          0.53331297636 0.23667399585 0.55449801683 0.28782099485 0.5 0.29866200686
          0.53331297636 0.23667399585 0.56155401468 0.21780399978 0.60070002079 0.25694999099
          0.55449801683 0.28782099485 0.56155401468 0.21780399978 0.58042401075 0.18956199288
          0.63157099485 0.21074900031 0.60070002079 0.25694999099 0.58042401075 0.18956199288
          0.58705002069 0.15625 0.64241099358 0.15625 0.63157099485 0.21074900031
          0.58705002069 0.15625 0.58042401075 0.12293799967 0.63157099485 0.10175199807
          0.64241099358 0.15625 0.375 0.32882800698 0.375 0.3125
          0.390625 0.3125 0.390625 0.32882800698 0.64435601234 0.096455998719
          0.63157099485 0.10175199807 0.60070002079 0.055550001562 0.6104850173 0.045765001327
          0.390625 0.32882800698 0.390625 0.3125 0.40625 0.3125
          0.40625 0.32882800698 0.6104850173 0.045765001327 0.60070002079 0.055550001562
          0.55449897051 0.024678999558 0.55979400873 0.011893999763 0.40625 0.32882800698
          0.40625 0.3125 0.421875 0.3125 0.421875 0.32882800698
          0.55979400873 0.011893999763 0.55449897051 0.024678999558 0.5 0.013837999664
          0.5 0 0.421875 0.32882800698 0.421875 0.3125
          0.4375 0.3125 0.4375 0.32882800698 0.5 0
          0.5 0.013837999664 0.44550201297 0.024678999558 0.44020599127 0.011893999763
          0.4375 0.32882800698 0.4375 0.3125 0.453125 0.3125
          0.453125 0.32882800698 0.44020599127 0.011893999763 0.44550201297 0.024678999558
          0.39930000901 0.055550001562 0.3895150125 0.045765001327 0.453125 0.32882800698
          0.453125 0.3125 0.46875 0.3125 0.46875 0.32882800698
          0.3895150125 0.045765001327 0.39930000901 0.055550001562 0.36842900515 0.10175199807
          0.35564398766 0.096455998719 0.46875 0.32882800698 0.46875 0.3125
          0.484375 0.3125 0.484375 0.32882800698 0.35564398766 0.096455998719
          0.36842900515 0.10175199807 0.35758799314 0.15625 0.34375 0.15625
          0.484375 0.32882800698 0.484375 0.3125 0.5 0.3125
          0.5 0.32882800698 0.34375 0.15625 0.35758799314 0.15625
          0.36842900515 0.21074800193 0.35564398766 0.21604399383 0.5 0.32882800698
          0.5 0.3125 0.515625 0.3125 0.515625 0.32882800698
          0.35564398766 0.21604399383 0.36842900515 0.21074800193 0.39930000901 0.25694999099
          0.3895150125 0.2667349875 0.515625 0.32882800698 0.515625 0.3125
          0.53125 0.3125 0.53125 0.32882800698 0.3895150125 0.2667349875
          0.39930000901 0.25694999099 0.44550201297 0.28782099485 0.44020599127 0.30060601234
          0.53125 0.32882800698 0.53125 0.3125 0.546875 0.3125
          0.546875 0.32882800698 0.44020599127 0.30060601234 0.44550201297 0.28782099485
          0.5 0.29866200686 0.5 0.3125 0.546875 0.32882800698
          0.546875 0.3125 0.5625 0.3125 0.5625 0.32882800698
          0.5 0.3125 0.5 0.29866200686 0.55449801683 0.28782099485
          0.55979400873 0.30060601234 0.5625 0.32882800698 0.5625 0.3125
          0.578125 0.3125 0.578125 0.32882800698 0.55979400873 0.30060601234
          0.55449801683 0.28782099485 0.60070002079 0.25694999099 0.6104850173 0.2667349875
          0.578125 0.32882800698 0.578125 0.3125 0.59375 0.3125
          0.59375 0.32882800698 0.6104850173 0.2667349875 0.60070002079 0.25694999099
          0.63157099485 0.21074900031 0.64435601234 0.21604399383 0.59375 0.32882800698
          0.59375 0.3125 0.609375 0.3125 0.609375 0.32882800698
          0.64435601234 0.21604399383 0.63157099485 0.21074900031 0.64241099358 0.15625
          0.65625 0.15625 0.63157099485 0.10175199807 0.64435601234 0.096455998719
          0.65625 0.15625 0.64241099358 0.15625 0.625 0.3125
          0.625 0.32882800698 0.609375 0.32882800698 0.609375 0.3125
          0.375 0.32522898912 0.38749998808 0.32522898912 0.38749998808 0.67571097612
          0.375 0.67571097612 0.38749998808 0.32522898912 0.40000000596 0.32522898912
          0.40000000596 0.67571097612 0.38749998808 0.67571097612 0.40000000596 0.32522898912
          0.41249999404 0.32522898912 0.41249999404 0.67571097612 0.40000000596 0.67571097612
          0.41249999404 0.32522898912 0.42500001192 0.32522898912 0.42500001192 0.67571097612
          0.41249999404 0.67571097612 0.42500001192 0.32522898912 0.4375 0.32522898912
          0.4375 0.67571097612 0.42500001192 0.67571097612 0.4375 0.32522898912
          0.44999998808 0.32522898912 0.44999998808 0.67571097612 0.4375 0.67571097612
          0.44999998808 0.32522898912 0.46250000596 0.32522898912 0.46250000596 0.67571097612
          0.44999998808 0.67571097612 0.46250000596 0.32522898912 0.47499999404 0.32522898912
          0.47499999404 0.67571097612 0.46250000596 0.67571097612 0.47499999404 0.32522898912
          0.48750001192 0.32522898912 0.48750001192 0.67571097612 0.47499999404 0.67571097612
          0.48750001192 0.32522898912 0.5 0.32522898912 0.5 0.67571097612
          0.48750001192 0.67571097612 0.5 0.32522898912 0.51249998808 0.32522898912
          0.51249998808 0.67571097612 0.5 0.67571097612 0.51249998808 0.32522898912
          0.52499997616 0.32522898912 0.52499997616 0.67571097612 0.51249998808 0.67571097612
          0.52499997616 0.32522898912 0.53750002384 0.32522898912 0.53750002384 0.67571097612
          0.52499997616 0.67571097612 0.53750002384 0.32522898912 0.55000001192 0.32522898912
          0.55000001192 0.67571097612 0.53750002384 0.67571097612 0.55000001192 0.32522898912
          0.5625 0.32522898912 0.5625 0.67571097612 0.55000001192 0.67571097612
          0.5625 0.32522898912 0.57499998808 0.32522898912 0.57499998808 0.67571097612
          0.5625 0.67571097612 0.57499998808 0.32522898912 0.58749997616 0.32522898912
          0.58749997616 0.67571097612 0.57499998808 0.67571097612 0.58749997616 0.67571097612
          0.58749997616 0.32522898912 0.60000002384 0.32522898912 0.60000002384 0.67571097612
          0.60000002384 0.32522898912 0.61250001192 0.32522898912 0.61250001192 0.67571097612
          0.60000002384 0.67571097612 0.61250001192 0.32522898912 0.625 0.32522898912
          0.625 0.67571097612 0.61250001192 0.67571097612 0 0.49999299645
          1 0.49999499321 1 1 0 1
          0 0.49999299645 1 0.49999499321 1 1
          0 1 0 0.49999299645 1 0.49999499321
          1 1 0 1 0 0.49999299645
          1 0.49999499321 1 1 0 1
          0 0.49999299645 1 0.49999499321 1 1
          0 1 0 0.49999299645 1 0.49999499321
          1 1 0 1 0 0.49999299645
          1 0.49999499321 1 1 0 1
          0 0.49999299645 1 0.49999499321 1 1
          0 1 0 0.49999299645 1 0.49999499321
          1 1 0 1 0 0.49999299645
          1 0.49999499321 1 1 0 1
          0 0.49999299645 1 0.49999499321 1 1
          0 1 0 0.49999299645 1 0.49999499321
          1 1 0 1 0 0.49999299645
          1 0.49999499321 1 1 0 1
          0 0.49999299645 1 0.49999499321 1 1
          0 1 0 0.49999299645 1 0.49999499321
          1 1 0 1 0 0.49999299645
          1 0.49999499321 1 1 0 1
          0 0.49999299645 1 0.49999499321 1 1
          0 1 0 0.49999299645 1 0.49999499321
          1 1 0 1 0 0.49999299645
          1 0.49999499321 1 1 0 1
          0 0.49999299645 1 0.49999499321 1 1
          0 1 1.999999995e-06 0.49990001321 0.99999797344 0.49990001321
          1 1 0 1 1.999999995e-06 0.49990001321
          0.99999797344 0.49990001321 1 1 0 1
          1.999999995e-06 0.49990001321 0.99999797344 0.49990001321 1 1
          0 1 1.999999995e-06 0.49990001321 0.99999797344 0.49990001321
          1 1 0 1 1.999999995e-06 0.49990001321
          0.99999797344 0.49990001321 1 1 0 1
          1.999999995e-06 0.49990001321 0.99999797344 0.49990001321 1 1
          0 1 1.999999995e-06 0.49990001321 0.99999797344 0.49990001321
          1 1 0 1 1.999999995e-06 0.49990001321
          0.99999797344 0.49990001321 1 1 0 1
          1.999999995e-06 0.49990001321 0.99999797344 0.49990001321 1 1
          0 1 1.999999995e-06 0.49990001321 0.99999797344 0.49990001321
          1 1 0 1 1.999999995e-06 0.49990001321
          0.99999797344 0.49990001321 1 1 0 1
          1.999999995e-06 0.49990001321 0.99999797344 0.49990001321 1 1
          0 1 1.999999995e-06 0.49990001321 0.99999797344 0.49990001321
          1 1 0 1 1.999999995e-06 0.49990001321
          0.99999797344 0.49990001321 1 1 0 1
          1.999999995e-06 0.49990001321 0.99999797344 0.49990001321 1 1
          0 1 1.999999995e-06 0.49990001321 0.99999797344 0.49990001321
          1 1 0 1 1.999999995e-06 0.49990001321
          0.99999797344 0.49990001321 1 1 0 1
          1.999999995e-06 0.49990001321 0.99999797344 0.49990001321 1 1
          0 1 1.999999995e-06 0.49990001321 0.99999797344 0.49990001321
          1 1 0 1 1.999999995e-06 0.49990001321
          0.99999797344 0.49990001321 1 1 0 1
          0.375 0.32522898912 0.375 0.31454700232 0.38749998808 0.31454700232
          0.38749998808 0.32522898912 1 0 1 0.49999499321
          0 0.49999299645 0 0 0 0.49999299645
          0 0 1 0 1 0.49999499321
          0.625 0.31454700232 0.625 0.32522898912 0.61250001192 0.32522898912
          0.61250001192 0.31454700232 0.38749998808 0.32522898912 0.38749998808 0.31454700232
          0.40000000596 0.31454700232 0.40000000596 0.32522898912 1 0
          1 0.49999499321 0 0.49999299645 0 0
          0.40000000596 0.32522898912 0.40000000596 0.31454700232 0.41249999404 0.31454700232
          0.41249999404 0.32522898912 1 0 1 0.49999499321
          0 0.49999299645 0 0 0.41249999404 0.32522898912
          0.41249999404 0.31454700232 0.42500001192 0.31454700232 0.42500001192 0.32522898912
          1 0 1 0.49999499321 0 0.49999299645
          0 0 0.42500001192 0.32522898912 0.42500001192 0.31454700232
          0.4375 0.31454700232 0.4375 0.32522898912 1 0
          1 0.49999499321 0 0.49999299645 0 0
          0.4375 0.32522898912 0.4375 0.31454700232 0.44999998808 0.31454700232
          0.44999998808 0.32522898912 1 0 1 0.49999499321
          0 0.49999299645 0 0 0.44999998808 0.32522898912
          0.44999998808 0.31454700232 0.46250000596 0.31454700232 0.46250000596 0.32522898912
          1 0 1 0.49999499321 0 0.49999299645
          0 0 0.46250000596 0.32522898912 0.46250000596 0.31454700232
          0.47499999404 0.31454700232 0.47499999404 0.32522898912 1 0
          1 0.49999499321 0 0.49999299645 0 0
          0.47499999404 0.32522898912 0.47499999404 0.31454700232 0.48750001192 0.31454700232
          0.48750001192 0.32522898912 1 0 1 0.49999499321
          0 0.49999299645 0 0 0.48750001192 0.32522898912
          0.48750001192 0.31454700232 0.5 0.31454700232 0.5 0.32522898912
          1 0 1 0.49999499321 0 0.49999299645
          0 0 0.5 0.32522898912 0.5 0.31454700232
          0.51249998808 0.31454700232 0.51249998808 0.32522898912 1 0
          1 0.49999499321 0 0.49999299645 0 0
          0.51249998808 0.32522898912 0.51249998808 0.31454700232 0.52499997616 0.31454700232
          0.52499997616 0.32522898912 1 0 1 0.49999499321
          0 0.49999299645 0 0 0.52499997616 0.32522898912
          0.52499997616 0.31454700232 0.53750002384 0.31454700232 0.53750002384 0.32522898912
          1 0 1 0.49999499321 0 0.49999299645
          0 0 0.53750002384 0.32522898912 0.53750002384 0.31454700232
          0.55000001192 0.31454700232 0.55000001192 0.32522898912 1 0
          1 0.49999499321 0 0.49999299645 0 0
          0.55000001192 0.32522898912 0.55000001192 0.31454700232 0.5625 0.31454700232
          0.5625 0.32522898912 1 0 1 0.49999499321
          0 0.49999299645 0 0 0.5625 0.32522898912
          0.5625 0.31454700232 0.57499998808 0.31454700232 0.57499998808 0.32522898912
          1 0 1 0.49999499321 0 0.49999299645
          0 0 0.57499998808 0.32522898912 0.57499998808 0.31454700232
          0.58749997616 0.31454700232 0.58749997616 0.32522898912 1 0
          1 0.49999499321 0 0.49999299645 0 0
          0.58749997616 0.32522898912 0.58749997616 0.31454700232 0.60000002384 0.31454700232
          0.60000002384 0.32522898912 1 0 1 0.49999499321
          0 0.49999299645 0 0 0 0.49999299645
          0 0 1 0 1 0.49999499321
          0.61250001192 0.31454700232 0.61250001192 0.32522898912 0.60000002384 0.32522898912
          0.60000002384 0.31454700232 0.625 0.67571097612 0.625 0.68639302254
          0.61250001192 0.68639302254 0.61250001192 0.67571097612 1 0
          0.99999797344 0.49990001321 1.999999995e-06 0.49990001321 0 0
          1.999999995e-06 0.49990001321 0 0 1 0
          0.99999797344 0.49990001321 0.375 0.68639302254 0.375 0.67571097612
          0.38749998808 0.67571097612 0.38749998808 0.68639302254 0.61250001192 0.67571097612
          0.61250001192 0.68639302254 0.60000002384 0.68639302254 0.60000002384 0.67571097612
          1 0 0.99999797344 0.49990001321 1.999999995e-06 0.49990001321
          0 0 1.999999995e-06 0.49990001321 0 0
          1 0 0.99999797344 0.49990001321 0.38749998808 0.68639302254
          0.38749998808 0.67571097612 0.40000000596 0.67571097612 0.40000000596 0.68639302254
          1.999999995e-06 0.49990001321 0 0 1 0
          0.99999797344 0.49990001321 0.40000000596 0.68639302254 0.40000000596 0.67571097612
          0.41249999404 0.67571097612 0.41249999404 0.68639302254 1.999999995e-06 0.49990001321
          0 0 1 0 0.99999797344 0.49990001321
          0.41249999404 0.68639302254 0.41249999404 0.67571097612 0.42500001192 0.67571097612
          0.42500001192 0.68639302254 1.999999995e-06 0.49990001321 0 0
          1 0 0.99999797344 0.49990001321 0.42500001192 0.68639302254
          0.42500001192 0.67571097612 0.4375 0.67571097612 0.4375 0.68639302254
          1.999999995e-06 0.49990001321 0 0 1 0
          0.99999797344 0.49990001321 0.4375 0.68639302254 0.4375 0.67571097612
          0.44999998808 0.67571097612 0.44999998808 0.68639302254 1.999999995e-06 0.49990001321
          0 0 1 0 0.99999797344 0.49990001321
          0.44999998808 0.68639302254 0.44999998808 0.67571097612 0.46250000596 0.67571097612
          0.46250000596 0.68639302254 1.999999995e-06 0.49990001321 0 0
          1 0 0.99999797344 0.49990001321 0.46250000596 0.68639302254
          0.46250000596 0.67571097612 0.47499999404 0.67571097612 0.47499999404 0.68639302254
          1.999999995e-06 0.49990001321 0 0 1 0
          0.99999797344 0.49990001321 0.47499999404 0.68639302254 0.47499999404 0.67571097612
          0.48750001192 0.67571097612 0.48750001192 0.68639302254 1.999999995e-06 0.49990001321
          0 0 1 0 0.99999797344 0.49990001321
          0.48750001192 0.68639302254 0.48750001192 0.67571097612 0.5 0.67571097612
          0.5 0.68639302254 1.999999995e-06 0.49990001321 0 0
          1 0 0.99999797344 0.49990001321 0.5 0.68639302254
          0.5 0.67571097612 0.51249998808 0.67571097612 0.51249998808 0.68639302254
          1.999999995e-06 0.49990001321 0 0 1 0