<?xml version="1.0"?>
<VTKFile type="PolyData" version="0.1" byte_order="LittleEndian" compressor="vtkZLibDataCompressor">
	<PolyData>
		<Piece NumberOfPoints="41" NumberOfVerts="0" NumberOfLines="0" NumberOfStrips="0" NumberOfPolys="48">
		<PointData Normals="Normals">
		<DataArray type="Float32" Name="Normals" NumberOfComponents="3" format="ascii">
			-0.322404 -0.946601  0.001479
			-0.940456 -0.302470  0.155096
			-0.991613 -0.125790 -0.029688
			-0.291594 -0.892830 -0.343260
			 0.460991 -0.722335 -0.515479
			-0.517654 -0.775082 -0.362328
			 0.691982 -0.695641 -0.192990
			 0.784881 -0.521465 -0.334718
			-0.944589 -0.327325  0.024691
			-0.987525 -0.142649  0.066679
			-0.975403  0.090092 -0.201177
			-0.562059  0.325985 -0.760147
			 0.859093  0.125719 -0.496139
			 0.958591 -0.246428 -0.142748
			 0.388339 -0.759023 -0.522568
			 0.979216 -0.159857  0.124828
			 0.997348 -0.062339  0.037548
			-0.591940 -0.774497 -0.223074
			-0.944201 -0.329344 -0.004111
			 0.971721 -0.185825 -0.145694
			 0.978913 -0.102179 -0.176884
			-0.986860  0.143764 -0.073752
			-0.994653  0.038891  0.095674
			-0.959011 -0.177136  0.221179
			-0.879302 -0.265665  0.395285
			-0.914581 -0.279752  0.292029
			-0.442191  0.896903 -0.005658
			 0.686573  0.710113  0.156066
			 0.994691 -0.027404  0.099195
			 0.969410 -0.133195 -0.206166
			 0.537749 -0.820848  0.192444
			 0.957807  0.247338  0.146392
			-0.380468 -0.800136  0.463709
			 0.929054  0.173560  0.326705
			-0.586905  0.741872  0.324298
			-0.538569  0.661953  0.521308
			-0.367292 -0.012375  0.930023
			 0.578730  0.668969  0.466424
			 0.992191  0.124616  0.005198
			 0.803700  0.093626  0.587623
			 0.523754  0.768920  0.366667
		</DataArray>
	</PointData>
	<Points>
		<DataArray type="Float32" NumberOfComponents="3" format="ascii">
			-0.005790 -0.006545 -0.000716
			-0.007297 -0.004562  0.000924
			-0.008020 -0.004849 -0.004494
			-0.006332 -0.007078 -0.006182
			 0.003040 -0.007053  0.003799
			-0.005168 -0.007464  0.002532
			 0.005252 -0.001347 -0.000552
			 0.004145 -0.000097 -0.007480
			-0.006601 -0.004987  0.003981
			-0.006892 -0.003722  0.003088
			-0.006937 -0.001149 -0.009111
			-0.000397  0.004540 -0.013813
			 0.004865  0.004729 -0.009352
			 0.004361 -0.007704  0.006535
			 0.000876 -0.011403  0.005387
			 0.004925 -0.005255  0.006247
			 0.005404  0.000084  0.000744
			-0.004243 -0.011126  0.005111
			-0.006288 -0.006823  0.006663
			 0.005391  0.001650 -0.005406
			 0.005830  0.003205 -0.005618
			-0.008018  0.000287 -0.002917
			-0.007609  0.000581  0.005290
			-0.006816 -0.003790  0.008935
			-0.005546 -0.004841  0.011556
			-0.005793 -0.007089  0.010051
			-0.004888  0.006429 -0.003988
			 0.005940  0.004946 -0.002065
			 0.005902  0.003004 -0.002241
			 0.004525 -0.007813  0.007771
			 0.002630 -0.012112  0.008137
			 0.003446 -0.001391  0.008341
			-0.003460 -0.009957  0.012308
			 0.004183  0.001320  0.003457
			-0.007347  0.002633  0.005815
			-0.003533  0.000540  0.012090
			 0.000886 -0.003647  0.017582
			 0.002710  0.003651  0.005492
			 0.005529 -0.004252  0.011515
			 0.003820 -0.002787  0.017060
			 0.001913  0.000530  0.010271
		</DataArray>
	</Points>
			<Polys>
				<DataArray type="Int32" Name="connectivity" format="ascii">
					0 1 2 3 
					4 5 0 6 
					6 0 3 7 
					5 8 1 0 
					1 8 9 
					2 1 9 
					3 2 10 11 
					10 2 9 
					7 3 11 12 
					13 14 4 15 
					15 4 6 16 
					14 17 5 4 
					17 18 8 5 
					16 6 7 19 
					19 7 12 20 
					8 18 9 
					21 10 9 
					22 21 9 
					23 22 9 
					24 23 9 
					25 24 9 
					18 25 9 
					11 10 21 26 
					12 11 26 27 
					20 12 27 28 
					29 30 14 13 
					31 13 15 
					29 13 31 
					30 32 17 14 
					15 16 33 
					31 15 33 
					16 19 28 
					33 16 28 
					32 25 18 17 
					28 19 20 
					26 21 22 34 
					34 22 23 35 
					35 23 24 36 
					36 24 25 32 
					27 26 34 37 
					28 27 37 33 
					38 39 30 29 
					38 29 31 
					39 36 32 30 
					33 37 40 31 
					31 40 39 38 
					37 34 35 40 
					40 35 36 39 
				</DataArray>
				<DataArray type="Int32" Name="offsets" format="ascii">
					4 8 12 16 19 22 26 29 33 37 41 45 49 53 57 60 63 66 69 72 75 78 82 86 90 94 97 100 104 107 110 113 116 120 123 127 131 135 139 143 147 151 154 158 162 166 170 174 
				</DataArray>
			</Polys>
		</Piece>
	</PolyData>
</VTKFile>
