<?xml version="1.0"?>
<VTKFile type="PolyData" version="0.1" byte_order="LittleEndian" compressor="vtkZLibDataCompressor">
	<PolyData>
		<Piece NumberOfPoints="47" NumberOfVerts="0" NumberOfLines="0" NumberOfStrips="0" NumberOfPolys="54">
		<PointData Normals="Normals">
		<DataArray type="Float32" Name="Normals" NumberOfComponents="3" format="ascii">
			 0.510459 -0.645203 -0.568459
			 0.312651 -0.659729 -0.683379
			 0.224623 -0.357613 -0.906453
			 0.356634 -0.152210 -0.921762
			 0.321328 -0.692665 -0.645728
			-0.048053 -0.525448 -0.849467
			 0.699198 -0.152378 -0.698500
			 0.083088 -0.853592 -0.514273
			-0.011756 -0.414171 -0.910123
			 0.055243 -0.958286 -0.280421
			 0.205244 -0.041075 -0.977848
			 0.283350 -0.003469 -0.959010
			 0.116687  0.199877 -0.972848
			 0.385724 -0.464256 -0.797298
			 0.245398 -0.771210 -0.587380
			 0.408421 -0.807061  0.426432
			 0.477246  0.228528 -0.848535
			 0.827573  0.238834 -0.508016
			 0.924759 -0.071605 -0.373757
			 0.800933 -0.366950 -0.473133
			-0.786146 -0.551824  0.278326
			-0.909018  0.164901 -0.382746
			 0.032592 -0.560621  0.827431
			-0.670517  0.708518 -0.220021
			 0.234617 -0.545678  0.804481
			 0.480914  0.485898 -0.729812
			 0.340713  0.815182 -0.468394
			-0.564865  0.824655 -0.029526
			 0.882978 -0.430001  0.188277
			 0.813585 -0.133235  0.565975
			 0.052139 -0.232323  0.971240
			 0.852729  0.516818  0.075848
			 0.923345  0.067492  0.377993
			-0.515622  0.193107  0.834771
			-0.700630  0.496249  0.512694
			-0.179039  0.131912  0.974959
			-0.611626  0.625671  0.484199
			-0.191300 -0.151613  0.969751
			-0.770786  0.559224  0.305217
			-0.455826 -0.189123  0.869744
			 0.586991  0.737490  0.333991
			-0.377946  0.827980  0.414253
			-0.778381  0.482884  0.401181
			 0.718231  0.448371  0.532079
			-0.031032  0.537172  0.842902
			-0.564942  0.241411  0.789026
			-0.520299  0.363843  0.772598
		</DataArray>
	</PointData>
	<Points>
		<DataArray type="Float32" NumberOfComponents="3" format="ascii">
			 0.006112  0.000757 -0.004990
			 0.000049 -0.000897 -0.003804
			 0.001738  0.001923 -0.004982
			 0.005966  0.002566 -0.005646
			 0.005180 -0.000002 -0.004641
			 0.000253 -0.001675 -0.002801
			 0.007084  0.003842 -0.004619
			-0.005262 -0.007952 -0.001032
			-0.001724 -0.001652 -0.005202
			-0.003992 -0.009062  0.001853
			 0.002309  0.006030 -0.004736
			 0.006252  0.005973 -0.005894
			-0.000650  0.005944 -0.007958
			 0.006971  0.000070 -0.004145
			 0.004318 -0.001295 -0.003181
			 0.003108 -0.002699 -0.002660
			 0.007754  0.009266 -0.005205
			 0.008842  0.009428 -0.003486
			 0.008634  0.004748 -0.003695
			 0.008049  0.001775 -0.003876
			-0.011698 -0.005972  0.003154
			-0.013204 -0.001065  0.001618
			-0.007328 -0.007547  0.004660
			-0.008571  0.006571 -0.000084
			-0.002097 -0.001590  0.006169
			 0.004914  0.010337 -0.004684
			 0.004472  0.011772 -0.002740
			-0.002155  0.010294  0.002639
			 0.007006  0.000945 -0.000552
			 0.006834  0.001841  0.005749
			 0.002726  0.005162  0.009395
			 0.008312  0.010950 -0.001812
			 0.008172  0.005733 -0.000909
			-0.010222 -0.000823  0.005471
			-0.010503  0.001663  0.004084
			-0.008295  0.000144  0.005908
			-0.007999  0.004386  0.003301
			-0.005162  0.002518  0.005813
			-0.004699  0.006627  0.004426
			-0.001981  0.003905  0.007671
			 0.005868  0.011114  0.000927
			-0.000213  0.010961  0.005935
			-0.003516  0.008725  0.004799
			 0.007365  0.006611  0.000938
			-0.000882  0.008401  0.008560
			-0.003185  0.005640  0.006631
			-0.006174  0.003643  0.005345
		</DataArray>
	</Points>
			<Polys>
				<DataArray type="Int32" Name="connectivity" format="ascii">
					0 1 2 3 
					4 5 1 0 
					6 0 3 
					6 4 0 
					1 7 8 2 
					5 9 7 1 
					3 2 10 11 
					2 8 12 10 
					6 3 11 
					13 14 5 4 
					6 13 4 
					14 15 9 5 
					6 11 16 
					6 16 17 
					6 17 18 
					6 18 19 
					6 19 13 
					7 20 21 8 
					9 22 20 7 
					8 21 23 12 
					15 24 22 9 
					11 10 25 16 
					10 12 26 25 
					12 23 27 26 
					19 28 14 13 
					28 29 15 14 
					29 30 24 15 
					16 25 31 17 
					17 31 32 18 
					18 32 28 19 
					20 33 34 21 
					22 35 33 20 
					21 34 36 23 
					24 37 35 22 
					23 36 38 27 
					30 39 37 24 
					25 26 40 31 
					26 27 41 40 
					27 38 42 41 
					32 43 29 28 
					43 44 30 29 
					44 45 39 30 
					31 40 43 32 
					34 33 46 
					33 35 46 
					36 34 46 
					35 37 46 
					38 36 46 
					37 39 46 
					42 38 46 
					39 45 46 
					40 41 44 43 
					41 42 45 44 
					45 42 46 
				</DataArray>
				<DataArray type="Int32" Name="offsets" format="ascii">
					4 8 11 14 18 22 26 30 33 37 40 44 47 50 53 56 59 63 67 71 75 79 83 87 91 95 99 103 107 111 115 119 123 127 131 135 139 143 147 151 155 159 163 166 169 172 175 178 181 184 187 191 195 198 
				</DataArray>
			</Polys>
		</Piece>
	</PolyData>
</VTKFile>
