<?xml version="1.0"?>
<VTKFile type="PolyData" version="0.1" byte_order="LittleEndian" compressor="vtkZLibDataCompressor">
	<PolyData>
		<Piece NumberOfPoints="34" NumberOfVerts="0" NumberOfLines="0" NumberOfStrips="0" NumberOfPolys="40">
		<PointData Normals="Normals">
		<DataArray type="Float32" Name="Normals" NumberOfComponents="3" format="ascii">
			 0.877638 -0.392143 -0.275636
			 0.444683 -0.363704 -0.818521
			 0.638165  0.097923 -0.763647
			 0.914934 -0.329302 -0.233359
			 0.910389 -0.337946 -0.238713
			 0.553663 -0.716619 -0.424163
			 0.965996 -0.255589 -0.039054
			-0.686048 -0.520867 -0.507972
			-0.567360  0.002655 -0.823466
			-0.409009  0.643007 -0.647498
			 0.807538  0.458548 -0.370966
			 0.946996 -0.273156 -0.169067
			-0.170764  0.952779 -0.251102
			 0.972324 -0.232809  0.019627
			 0.562109 -0.778437  0.279409
			-0.671567 -0.637432  0.377727
			 0.948627 -0.125531  0.290428
			 0.914813 -0.403857 -0.004138
			 0.919874 -0.305035  0.246547
			-0.947106  0.320095  0.023010
			-0.954562  0.244424 -0.170494
			-0.927414  0.344757 -0.145073
			-0.818801  0.561972 -0.117275
			-0.721756  0.689164 -0.064202
			 0.928392  0.243354  0.280834
			-0.238962  0.946660  0.216175
			-0.795490  0.603176  0.058096
			 0.552639 -0.423933  0.717545
			-0.491970 -0.135476  0.860007
			-0.824657  0.490099  0.282389
			 0.633576 -0.082627  0.769256
			-0.843861  0.531663  0.072341
			-0.356345  0.418444  0.835418
			-0.803549  0.544285  0.240961
		</DataArray>
	</PointData>
	<Points>
		<DataArray type="Float32" NumberOfComponents="3" format="ascii">
			 0.004070 -0.000240 -0.003915
			 0.002610  0.000040 -0.006636
			 0.003579  0.002747 -0.007584
			 0.004524  0.000776 -0.004076
			 0.003622 -0.001828 -0.002859
			 0.002133 -0.004828 -0.003341
			 0.004065 -0.000854 -0.001893
			-0.011735 -0.005728 -0.002531
			-0.009483  0.000794 -0.005580
			-0.004060  0.004839 -0.006146
			 0.004894  0.002833 -0.004223
			 0.004550  0.001047 -0.002867
			-0.005440  0.006400 -0.002611
			 0.003989 -0.002322 -0.001104
			 0.002851 -0.004793 -0.000217
			-0.012431 -0.004698  0.002888
			 0.003781 -0.001914 -0.000215
			 0.004237 -0.000609 -0.000827
			 0.003748 -0.001741  0.000719
			-0.012688 -0.001687  0.002129
			-0.012140 -0.001458 -0.000419
			-0.011307  0.000766 -0.001473
			-0.010545  0.002319 -0.001916
			-0.008764  0.004425  0.000480
			 0.006093  0.003010 -0.000304
			-0.006400  0.007489  0.003696
			-0.008050  0.005300  0.002292
			 0.001992 -0.003969  0.002997
			-0.010849 -0.002177  0.006167
			-0.011214  0.000463  0.003932
			 0.000874 -0.001712  0.005076
			-0.010531  0.001539  0.001233
			-0.007147  0.003218  0.007170
			-0.009537  0.002186  0.004842
		</DataArray>
	</Points>
			<Polys>
				<DataArray type="Int32" Name="connectivity" format="ascii">
					0 1 2 3 
					4 5 1 0 
					6 4 0 
					6 0 3 
					5 7 8 1 
					1 8 9 2 
					3 2 10 11 
					2 9 12 10 
					6 3 11 
					13 14 5 4 
					6 13 4 
					14 15 7 5 
					6 16 13 
					6 11 17 
					6 17 18 
					6 18 16 
					15 19 20 7 
					7 20 21 8 
					8 21 22 9 
					9 22 23 12 
					11 10 24 17 
					10 12 25 24 
					12 23 26 25 
					16 27 14 13 
					27 28 15 14 
					28 29 19 15 
					18 30 27 16 
					17 24 30 18 
					19 29 31 
					20 19 31 
					21 20 31 
					22 21 31 
					23 22 31 
					26 23 31 
					24 25 32 30 
					25 26 33 32 
					33 26 31 
					30 32 28 27 
					32 33 29 28 
					29 33 31 
				</DataArray>
				<DataArray type="Int32" Name="offsets" format="ascii">
					4 8 11 14 18 22 26 30 33 37 40 44 47 50 53 56 60 64 68 72 76 80 84 88 92 96 100 104 107 110 113 116 119 122 126 130 133 137 141 144 
				</DataArray>
			</Polys>
		</Piece>
	</PolyData>
</VTKFile>
