<?xml version="1.0"?>
<VTKFile type="PolyData" version="0.1" byte_order="LittleEndian" compressor="vtkZLibDataCompressor">
	<PolyData>
		<Piece NumberOfPoints="34" NumberOfVerts="0" NumberOfLines="0" NumberOfStrips="0" NumberOfPolys="41">
		<PointData Normals="Normals">
		<DataArray type="Float32" Name="Normals" NumberOfComponents="3" format="ascii">
			 0.320647  0.140975 -0.936649
			 0.649467  0.029616 -0.759813
			 0.199235 -0.641915 -0.740439
			 0.441617 -0.302948 -0.844510
			 0.128823  0.363030 -0.922829
			 0.383346 -0.092750 -0.918936
			 0.309061  0.097845 -0.945996
			 0.324374  0.240898 -0.914740
			 0.180592  0.425321 -0.886842
			 0.982584 -0.035197 -0.182454
			 0.887943 -0.385974 -0.250162
			 0.790136 -0.329636 -0.516745
			-0.442124 -0.872505  0.207992
			 0.042119 -0.997168 -0.062305
			 0.451661 -0.867511  0.208393
			 0.229773 -0.192739 -0.953969
			-0.033809  0.966973  0.252628
			 0.594969  0.375443 -0.710671
			-0.239425  0.946730 -0.215357
			 0.812545 -0.371625 -0.449073
			-0.189528  0.305178 -0.933245
			 0.953685 -0.216802 -0.208522
			 0.619753 -0.368744  0.692773
			-0.308241 -0.426449  0.850369
			-0.401558 -0.400945  0.823404
			-0.251121 -0.877310  0.408982
			-0.059186 -0.619391 -0.782849
			-0.041950  0.738561  0.672881
			 0.598971  0.720965  0.348488
			-0.570302  0.781444 -0.253182
			 0.977638 -0.048622  0.204598
			-0.776830 -0.462912 -0.426905
			 0.832023 -0.124090  0.540685
			 0.161282  0.144435  0.976282
		</DataArray>
	</PointData>
	<Points>
		<DataArray type="Float32" NumberOfComponents="3" format="ascii">
			 0.002205 -0.004038 -0.002226
			 0.004687 -0.003927 -0.003013
			 0.003588 -0.007448 -0.003112
			 0.000517 -0.008841 -0.002963
			 0.003111 -0.000525 -0.002527
			 0.005283  0.000430 -0.002684
			-0.000256 -0.001902 -0.003423
			-0.000327 -0.000111 -0.002942
			 0.000254  0.002987 -0.002101
			 0.004635 -0.004116  0.000134
			 0.004411 -0.009022 -0.000146
			 0.004893 -0.000750  0.000888
			 0.002761 -0.010225  0.000477
			-0.001679 -0.009610 -0.000876
			 0.004343 -0.009787  0.002295
			-0.001816 -0.003047 -0.003568
			 0.003591  0.004617 -0.000234
			 0.007370  0.004761 -0.002008
			-0.003025  0.003660 -0.001170
			 0.007440  0.003404 -0.000726
			-0.002544 -0.000317 -0.002534
			 0.005562 -0.002601  0.002259
			 0.005334 -0.004896  0.005050
			 0.002147 -0.004204  0.005698
			-0.006387  0.003016  0.006286
			-0.004910 -0.004854 -0.001727
			-0.003376 -0.004192 -0.003711
			-0.000338  0.006948  0.001944
			 0.007452  0.005249  0.004251
			-0.005951  0.002568 -0.000629
			 0.007624  0.003489  0.003491
			-0.005849 -0.002496 -0.002728
			 0.005817  0.000863  0.007084
			 0.003854  0.001693  0.008777
		</DataArray>
	</Points>
			<Polys>
				<DataArray type="Int32" Name="connectivity" format="ascii">
					0 1 2 3 
					4 5 1 0 
					3 6 7 0 
					0 7 8 4 
					1 9 10 2 
					5 11 9 1 
					3 2 12 13 
					2 10 14 12 
					13 15 6 3 
					16 17 5 4 
					4 8 18 16 
					17 19 11 5 
					7 6 20 
					6 15 20 
					8 7 20 
					18 8 20 
					21 10 9 
					21 9 11 
					21 14 10 
					21 11 19 
					12 14 22 23 
					13 12 23 24 
					25 26 15 13 
					13 24 25 
					21 22 14 
					15 26 20 
					27 28 17 16 
					16 18 29 27 
					28 30 19 17 
					29 18 20 
					21 19 30 
					31 29 20 
					26 31 20 
					21 30 32 
					21 32 22 
					23 22 32 33 
					33 24 23 
					24 33 28 27 
					27 29 31 24 
					24 31 26 25 
					33 32 30 28 
				</DataArray>
				<DataArray type="Int32" Name="offsets" format="ascii">
					4 8 12 16 20 24 28 32 36 40 44 48 51 54 57 60 63 66 69 72 76 80 84 87 90 93 97 101 105 108 111 114 117 120 123 127 130 134 138 142 146 
				</DataArray>
			</Polys>
		</Piece>
	</PolyData>
</VTKFile>
