<?xml version="1.0"?>
<VTKFile type="PolyData" version="0.1" byte_order="LittleEndian" compressor="vtkZLibDataCompressor">
	<PolyData>
		<Piece NumberOfPoints="211" NumberOfVerts="0" NumberOfLines="0" NumberOfStrips="0" NumberOfPolys="390">
		<PointData Normals="Normals">
		<DataArray type="Float32" Name="Normals" NumberOfComponents="3" format="ascii">
			 0.085644  0.976944 -0.195564
			 0.204156  0.960916 -0.186979
			 0.257518  0.956406 -0.134812
			 0.037377  0.998191 -0.047086
			-0.022299  0.995983 -0.086726
			-0.425995  0.842007  0.330986
			-0.146463  0.983666 -0.104643
			-0.095745  0.977019 -0.190441
			-0.008194  0.996276 -0.085826
			-0.035866 -0.874881 -0.483007
			-0.296126 -0.926070  0.233888
			-0.207860 -0.932617  0.294991
			-0.202033 -0.842148 -0.499970
			-0.480068 -0.865253  0.144469
			-0.123944 -0.743935 -0.656657
			-0.633360 -0.773509 -0.023222
			 0.331411 -0.731173 -0.596283
			-0.744845 -0.636513 -0.200144
			 0.588545 -0.675731  0.443849
			-0.757002 -0.652425 -0.035923
			-0.082521 -0.823828  0.560802
			-0.608764 -0.791135 -0.059257
			-0.284691 -0.860828  0.421813
			-0.315706 -0.888449 -0.333148
			-0.140282 -0.910768  0.388359
			-0.148293 -0.889879 -0.431422
			-0.010564 -0.800910  0.598692
			 0.092050 -0.963852 -0.250034
			-0.071856 -0.683272  0.726619
			-0.091808 -0.869121 -0.486004
			-0.834388 -0.542700  0.096297
			-0.206089 -0.907349 -0.366394
			-0.964759 -0.240050  0.107780
			-0.100873 -0.994167  0.038165
			-0.849495 -0.454997 -0.267088
			-0.043222 -0.972374  0.229390
			-0.438709 -0.668757 -0.600249
			-0.352018 -0.890946  0.286879
			-0.042688 -0.724273 -0.688191
			 0.475180 -0.601291 -0.642381
			 0.290765  0.953054  0.084525
			 0.052538  0.357794 -0.932321
			 0.208933 -0.011794 -0.977859
			-0.037763  0.412644 -0.910109
			 0.056530 -0.172285 -0.983424
			 0.668721  0.441918 -0.597931
			 0.550548 -0.209621 -0.808057
			 0.997375 -0.048367  0.053895
			 0.763986  0.291559  0.575603
			 0.621036 -0.132074  0.772575
			 0.568095  0.098696  0.817023
			 0.246551 -0.362870  0.898631
			 0.172708  0.161750  0.971601
			-0.102631 -0.398405  0.911449
			-0.257066  0.178791  0.949711
			-0.098255 -0.165477  0.981307
			-0.714797  0.315611  0.624063
			-0.718022 -0.130954  0.683590
			-0.999064  0.039636  0.017324
			-0.890259  0.330741 -0.313129
			-0.886330  0.299238 -0.353378
			-0.140516  0.485974 -0.862603
			-0.170425  0.098245 -0.980461
			 0.140505  0.472420 -0.870102
			 0.070911  0.127993 -0.989237
			 0.093785  0.243268 -0.965414
			 0.683816  0.437883 -0.583656
			 0.886836  0.345500  0.306841
			 0.525056  0.300004  0.796438
			-0.047296  0.274502  0.960423
			-0.390080  0.309388  0.867246
			-0.871847  0.365331  0.326215
			-0.524335  0.304637 -0.795153
			 0.004410  0.270443 -0.962726
			 0.051536 -0.005589 -0.998655
			 0.220298  0.007212 -0.975406
			 0.842529  0.148802 -0.517690
			 0.813740  0.155354  0.560082
			 0.436640  0.170023  0.883424
			-0.260955  0.199117  0.944593
			-0.772625  0.211319  0.598661
			-0.818658  0.125597 -0.560379
			-0.121481  0.019770 -0.992351
			 0.075487 -0.093865 -0.992719
			 0.464575 -0.046903 -0.884291
			 0.995763  0.090287 -0.017426
			 0.744503  0.130562  0.654728
			 0.111821  0.124741  0.985868
			-0.659898  0.098440  0.744878
			-0.996627  0.050382 -0.064783
			-0.304254 -0.059601 -0.950725
			-0.101702 -0.080024 -0.991591
			 0.033208 -0.094105 -0.995008
			 0.154824 -0.041018 -0.987090
			 0.508117 -0.022215 -0.861002
			 0.539334 -0.052308 -0.840466
			 0.997484  0.069709  0.012926
			 0.986403  0.108138  0.123756
			 0.693344  0.106296  0.712724
			 0.565694  0.118968  0.815988
			-0.240654  0.059514  0.968785
			-0.282775  0.053040  0.957719
			-0.823215  0.029444  0.566965
			-0.791615 -0.017382  0.610773
			-0.934067 -0.051494 -0.353364
			-0.931894 -0.140820 -0.334282
			-0.286342 -0.089753 -0.953914
			-0.016079 -0.082035 -0.996500
			 0.016583 -0.047288 -0.998744
			-0.075239 -0.185526 -0.979755
			 0.827776  0.051701 -0.558671
			 0.947876  0.179751  0.263097
			 0.523915  0.183822  0.831699
			-0.234086  0.116525  0.965208
			-0.656475 -0.003468  0.754340
			-0.954616 -0.210733 -0.210476
			-0.149039 -0.175504 -0.973132
			-0.023793 -0.206417 -0.978175
			 0.407713 -0.072516 -0.910226
			 0.793183  0.065781 -0.605421
			 0.768517  0.122574 -0.627979
			 0.947943  0.257045  0.187969
			 0.917286  0.317240  0.240718
			 0.450430  0.297585  0.841758
			 0.600423  0.278767  0.749521
			-0.033404  0.186889  0.981813
			 0.128996  0.181196  0.974950
			-0.468484  0.015371  0.883338
			-0.593823 -0.027185  0.804136
			-0.929631 -0.237301 -0.281913
			-0.881306 -0.242906 -0.405336
			-0.270005 -0.199547 -0.941955
			-0.433356 -0.288387 -0.853836
			-0.393142 -0.270747 -0.878712
			 0.295381 -0.259624 -0.919427
			 0.373262  0.031133 -0.927204
			 0.663733  0.090351 -0.742492
			 0.589978 -0.148108 -0.793719
			 0.969883  0.222775  0.098481
			 0.968766  0.240275  0.061323
			 0.559059  0.243001  0.792719
			 0.444811  0.203395  0.872223
			-0.186654  0.078600  0.979276
			-0.340182  0.043696  0.939344
			-0.812516 -0.095237  0.575107
			-0.860156 -0.160299  0.484186
			-0.874451 -0.290282 -0.388680
			-0.886527 -0.371374 -0.275955
			-0.491623 -0.364449 -0.790875
			-0.185921 -0.282557 -0.941060
			-0.069202 -0.156422 -0.985263
			-0.084484 -0.406715 -0.909640
			 0.742996  0.015739 -0.669111
			 0.980512  0.190845  0.046641
			 0.422238  0.175492  0.889335
			-0.427901 -0.001631  0.903824
			-0.822178 -0.174416  0.541851
			-0.922163 -0.278666 -0.268257
			 0.658642  0.097360 -0.746131
			 0.597057 -0.055489 -0.800277
			 0.778342  0.085330 -0.622014
			 0.833623  0.139612 -0.534398
			 0.961000  0.243047  0.131937
			 0.918083  0.241668  0.314199
			 0.316911  0.204337  0.926182
			 0.288303  0.189462  0.938608
			-0.455720  0.039331  0.889254
			-0.472466  0.071909  0.878411
			-0.851346 -0.085390  0.517608
			-0.882759 -0.009932  0.469722
			-0.921866 -0.263111 -0.284492
			-0.950433  0.014696 -0.310583
			-0.367702 -0.206437 -0.906741
			-0.407597  0.029376 -0.912689
			-0.004875 -0.110515 -0.993862
			-0.194210  0.101719 -0.975672
			 0.059862 -0.285569 -0.956487
			 0.459637  0.115464 -0.880569
			 0.779401 -0.087801 -0.620343
			 0.556533 -0.487166 -0.673008
			 0.939767 -0.113840  0.322301
			 0.977392 -0.167107  0.129541
			 0.479204 -0.043901  0.876605
			 0.597168 -0.293559  0.746467
			-0.214827 -0.101684  0.971344
			 0.069058 -0.255425  0.964359
			-0.738093 -0.113173  0.665140
			-0.587917 -0.100310  0.802678
			-0.981723 -0.185820  0.041121
			-0.940077 -0.245787  0.236313
			-0.707029 -0.357002 -0.610458
			-0.568419 -0.252921 -0.782899
			-0.115804 -0.135116 -0.984039
			 0.578562  0.086787 -0.811008
			 0.845249  0.088070 -0.527065
			 0.931300  0.119182  0.344202
			 0.409768  0.062295  0.910060
			-0.275113 -0.013566  0.961316
			-0.754386 -0.053639  0.654236
			-0.997989 -0.058357  0.024733
			-0.749118 -0.070061 -0.658722
			-0.445522 -0.095299 -0.890185
			-0.280020  0.828546 -0.484872
			 0.064597  0.011088 -0.997850
			 0.577843  0.587471 -0.566547
			 0.920890  0.389645 -0.011768
			 0.643935  0.513250  0.567382
			-0.012952  0.683002  0.730301
			-0.892124  0.451025  0.026280
			-0.505310  0.538215 -0.674527
			-0.418776  0.513612 -0.748886
		</DataArray>
	</PointData>
	<Points>
		<DataArray type="Float32" NumberOfComponents="3" format="ascii">
			-0.000663  0.001141 -0.007926
			 0.005261  0.001284 -0.006012
			 0.007840  0.002032  0.000350
			 0.006718  0.002672  0.005658
			 0.001144  0.002726  0.008383
			-0.003573  0.002622  0.007855
			-0.006591  0.001676  0.001405
			-0.005168  0.001347 -0.004521
			-0.000244  0.000079 -0.000571
			 0.028093 -0.233968  0.018620
			 0.023393 -0.233290  0.019433
			 0.029714 -0.233105  0.021773
			 0.033467 -0.235151  0.018757
			 0.032434 -0.233936  0.022327
			 0.038205 -0.237979  0.020779
			 0.034594 -0.235234  0.023780
			 0.040291 -0.240193  0.022155
			 0.035704 -0.236222  0.025006
			 0.041017 -0.243321  0.024656
			 0.036150 -0.237155  0.026469
			 0.039330 -0.240556  0.027555
			 0.034481 -0.235797  0.027891
			 0.034971 -0.236156  0.029891
			 0.031760 -0.234680  0.028743
			 0.027894 -0.235222  0.032002
			 0.027440 -0.233126  0.028645
			 0.019586 -0.233691  0.031417
			 0.022915 -0.232759  0.027914
			 0.016192 -0.234882  0.032185
			 0.020431 -0.231751  0.026464
			 0.014360 -0.233941  0.031942
			 0.019514 -0.231326  0.024855
			 0.014858 -0.230073  0.026205
			 0.018471 -0.230653  0.023551
			 0.010637 -0.231829  0.017125
			 0.018834 -0.231011  0.020944
			 0.017850 -0.232712  0.014670
			 0.021822 -0.231775  0.019785
			 0.022629 -0.234024  0.014434
			 0.028289 -0.233981  0.018580
			 0.026079 -0.232086  0.024685
			 0.027040 -0.223482  0.018260
			 0.028805 -0.229946  0.014878
			 0.034446 -0.224354  0.018235
			 0.035983 -0.229632  0.015372
			 0.041934 -0.223399  0.017552
			 0.042146 -0.228180  0.016557
			 0.045851 -0.228803  0.025837
			 0.042845 -0.223983  0.028657
			 0.039408 -0.229758  0.030622
			 0.038139 -0.223831  0.031597
			 0.032099 -0.230394  0.036068
			 0.030868 -0.223377  0.036898
			 0.026937 -0.229893  0.036177
			 0.024740 -0.223255  0.035406
			 0.017606 -0.229293  0.034381
			 0.014135 -0.223544  0.032653
			 0.013133 -0.228605  0.033805
			 0.014730 -0.227596  0.025821
			 0.014694 -0.222788  0.020183
			 0.011605 -0.228538  0.017849
			 0.020968 -0.223103  0.017960
			 0.016929 -0.229573  0.012210
			 0.028020 -0.223575  0.018578
			 0.027097 -0.220445  0.019106
			 0.035421 -0.219414  0.019987
			 0.040370 -0.217749  0.020168
			 0.039654 -0.216901  0.026395
			 0.033374 -0.218023  0.033021
			 0.027222 -0.218636  0.035127
			 0.019930 -0.218398  0.031912
			 0.016275 -0.217636  0.029814
			 0.016353 -0.217727  0.020745
			 0.027943 -0.219908  0.019580
			 0.027523 -0.208334  0.019979
			 0.032726 -0.207778  0.020245
			 0.038454 -0.207336  0.023605
			 0.035626 -0.205968  0.027848
			 0.032421 -0.206082  0.030707
			 0.025938 -0.207635  0.032486
			 0.019137 -0.208329  0.028458
			 0.018373 -0.208316  0.022233
			 0.028520 -0.208515  0.020408
			 0.026374 -0.184039  0.017921
			 0.031901 -0.183774  0.018359
			 0.034822 -0.183559  0.023066
			 0.032605 -0.183150  0.027092
			 0.029285 -0.181391  0.028816
			 0.021235 -0.183477  0.024609
			 0.018803 -0.183304  0.020676
			 0.022082 -0.183472  0.018763
			 0.027223 -0.183985  0.018557
			 0.025302 -0.139253  0.017960
			 0.025787 -0.166353  0.015638
			 0.031772 -0.166010  0.016793
			 0.031056 -0.139099  0.015552
			 0.033567 -0.165754  0.019984
			 0.031757 -0.138656  0.018335
			 0.031077 -0.167226  0.025744
			 0.029234 -0.138535  0.025448
			 0.025359 -0.165510  0.027262
			 0.024697 -0.139179  0.025464
			 0.021127 -0.165702  0.023140
			 0.019354 -0.140294  0.021693
			 0.020140 -0.165764  0.019341
			 0.016873 -0.140179  0.016542
			 0.023132 -0.166298  0.017638
			 0.020827 -0.139236  0.015584
			 0.026481 -0.165812  0.016865
			 0.022498 -0.115268  0.011420
			 0.028189 -0.114538  0.013517
			 0.027161 -0.113552  0.019175
			 0.024123 -0.113602  0.023329
			 0.023047 -0.114117  0.023725
			 0.017034 -0.115662  0.018812
			 0.013148 -0.116584  0.014604
			 0.017488 -0.115600  0.012528
			 0.013947 -0.073959  0.003978
			 0.018698 -0.088365  0.006614
			 0.022738 -0.087151  0.008487
			 0.017871 -0.071537  0.005416
			 0.024102 -0.086640  0.013489
			 0.018484 -0.071250  0.010812
			 0.020914 -0.086554  0.017864
			 0.014718 -0.071249  0.014394
			 0.018983 -0.086771  0.017993
			 0.013854 -0.070830  0.015041
			 0.013342 -0.087976  0.017284
			 0.006855 -0.071939  0.013166
			 0.007002 -0.091231  0.010799
			 0.004052 -0.073763  0.008531
			 0.013518 -0.088819  0.009421
			 0.008958 -0.073410  0.006413
			 0.018809 -0.088106  0.007073
			 0.004515 -0.046906  0.002381
			 0.009604 -0.060699  0.001192
			 0.014160 -0.058272  0.003216
			 0.010470 -0.046028  0.000932
			 0.015937 -0.056609  0.007883
			 0.012891 -0.044431  0.005265
			 0.012696 -0.056393  0.012460
			 0.007681 -0.044072  0.011170
			 0.007434 -0.057634  0.013116
			 0.003132 -0.045595  0.011400
			 0.002616 -0.060151  0.010335
			-0.000303 -0.046186  0.008291
			 0.002474 -0.060677  0.006311
			-0.001627 -0.047961  0.001378
			 0.006860 -0.060889  0.002829
			 0.000945 -0.046449 -0.001005
			 0.010013 -0.060810  0.001222
			 0.004012 -0.041539 -0.003505
			 0.009608 -0.039884 -0.000164
			 0.011568 -0.038498  0.003984
			 0.007630 -0.037800  0.010502
			 0.000313 -0.039747  0.009830
			-0.002147 -0.040081  0.007409
			-0.004257 -0.041036  0.001900
			 0.003786 -0.029199 -0.004890
			 0.004524 -0.035997 -0.004201
			 0.007661 -0.034872 -0.001713
			 0.007679 -0.026463 -0.000704
			 0.010443 -0.032773  0.004231
			 0.008188 -0.025203  0.004387
			 0.005397 -0.033317  0.010214
			 0.003468 -0.024579  0.008609
			-0.000663 -0.034126  0.009338
			-0.002414 -0.025895  0.007759
			-0.003614 -0.035429  0.006318
			-0.004952 -0.027661  0.004399
			-0.005162 -0.037697  0.000956
			-0.005797 -0.029058 -0.000294
			 0.000914 -0.037639 -0.003846
			 0.000425 -0.029366 -0.004772
			 0.004481 -0.035571 -0.004039
			 0.003688 -0.029193 -0.004870
			-0.001318 -0.005181 -0.002705
			 0.000878 -0.012617 -0.004688
			 0.005889 -0.011244 -0.002114
			 0.007687 -0.004630 -0.007334
			 0.006486 -0.009869  0.003870
			 0.009805 -0.003641 -0.000804
			 0.003388 -0.010406  0.007377
			 0.006226 -0.002120  0.008214
			-0.001800 -0.009566  0.007759
			 0.000228 -0.001737  0.010266
			-0.004740 -0.010736  0.005749
			-0.003523 -0.002781  0.009753
			-0.005664 -0.011213  0.001885
			-0.008682 -0.005329  0.002825
			-0.003800 -0.011508 -0.002903
			-0.006452 -0.006752 -0.005815
			 0.001017 -0.012016 -0.004689
			 0.001959 -0.022311 -0.004432
			 0.006693 -0.020556 -0.001332
			 0.006810 -0.019403  0.004370
			 0.003803 -0.018980  0.007532
			-0.001246 -0.019737  0.008083
			-0.003758 -0.020555  0.006557
			-0.004921 -0.020889  0.004477
			-0.003768 -0.021220 -0.000774
			 0.002339 -0.022182 -0.004117
			-0.000429  0.001054 -0.007759
			-0.000602 -0.000110 -0.009741
			 0.007116  0.000199 -0.007611
			 0.010043  0.000726  0.002515
			 0.008167  0.002207  0.007880
			 0.001660  0.002445  0.010986
			-0.009110  0.000781  0.002362
			-0.006925  0.000269 -0.006279
			-0.000626 -0.000221 -0.009825
		</DataArray>
	</Points>
			<Polys>
				<DataArray type="Int32" Name="connectivity" format="ascii">
					0 8 1 
					1 8 2 
					2 8 3 
					3 8 4 
					4 8 5 
					5 8 6 
					6 8 7 
					7 8 0 
					11 10 9 
					12 11 9 
					10 11 12 
					14 10 12 
					15 10 14 
					16 15 14 
					17 15 16 
					18 17 16 
					19 17 18 
					20 19 18 
					21 19 20 
					22 21 20 
					23 21 22 
					24 23 22 
					25 23 24 
					26 25 24 
					27 25 26 
					28 27 26 
					29 27 28 
					30 29 28 
					31 29 30 
					32 31 30 
					33 31 32 
					34 33 32 
					35 33 34 
					36 35 34 
					37 35 36 
					38 37 36 
					10 37 38 
					39 10 38 
					9 40 12 
					12 40 14 
					14 40 16 
					16 40 18 
					18 40 20 
					20 40 22 
					22 40 24 
					24 40 26 
					26 40 28 
					28 40 30 
					30 40 32 
					32 40 34 
					34 40 36 
					36 40 38 
					38 40 39 
					43 42 41 
					43 44 42 
					45 44 43 
					45 46 44 
					45 47 46 
					48 47 45 
					48 49 47 
					50 49 48 
					50 51 49 
					52 51 50 
					52 53 51 
					54 53 52 
					54 55 53 
					56 55 54 
					56 57 55 
					56 58 57 
					59 58 56 
					59 60 58 
					61 60 59 
					61 62 60 
					63 62 61 
					63 42 62 
					44 9 42 
					44 12 9 
					44 14 12 
					46 14 44 
					46 16 14 
					47 16 46 
					47 18 16 
					49 18 47 
					49 20 18 
					51 20 49 
					51 22 20 
					53 22 51 
					53 24 22 
					53 26 24 
					55 26 53 
					55 28 26 
					57 28 55 
					57 30 28 
					58 30 57 
					58 32 30 
					60 32 58 
					60 34 32 
					60 36 34 
					62 36 60 
					62 38 36 
					42 38 62 
					42 39 38 
					65 41 64 
					65 43 41 
					66 43 65 
					66 45 43 
					67 45 66 
					67 48 45 
					68 48 67 
					68 50 48 
					68 52 50 
					69 52 68 
					69 54 52 
					70 54 69 
					70 56 54 
					71 56 70 
					71 59 56 
					72 59 71 
					72 61 59 
					73 61 72 
					73 63 61 
					75 64 74 
					75 65 64 
					76 65 75 
					76 66 65 
					77 66 76 
					77 67 66 
					77 68 67 
					78 68 77 
					78 69 68 
					79 69 78 
					79 70 69 
					80 70 79 
					80 71 70 
					81 71 80 
					81 72 71 
					82 72 81 
					82 73 72 
					75 74 83 
					84 75 83 
					76 75 84 
					85 76 84 
					77 76 85 
					86 77 85 
					78 77 86 
					87 78 86 
					79 78 87 
					88 79 87 
					80 79 88 
					89 80 88 
					81 80 89 
					90 81 89 
					82 81 90 
					91 82 90 
					94 93 92 
					95 94 92 
					96 94 95 
					97 96 95 
					98 96 97 
					99 98 97 
					100 98 99 
					101 100 99 
					102 100 101 
					103 102 101 
					104 102 103 
					105 104 103 
					106 104 105 
					107 106 105 
					108 106 107 
					92 108 107 
					84 83 93 
					94 84 93 
					85 84 94 
					96 85 94 
					86 85 96 
					98 86 96 
					87 86 98 
					100 87 98 
					88 87 100 
					102 88 100 
					89 88 102 
					104 89 102 
					90 89 104 
					106 90 104 
					91 90 106 
					108 91 106 
					95 92 109 
					110 95 109 
					97 95 110 
					111 97 110 
					99 97 111 
					112 99 111 
					101 99 112 
					113 101 112 
					103 101 113 
					114 103 113 
					105 103 114 
					115 105 114 
					107 105 115 
					116 107 115 
					92 107 116 
					109 92 116 
					119 118 117 
					120 119 117 
					121 119 120 
					122 121 120 
					123 121 122 
					124 123 122 
					125 123 124 
					126 125 124 
					127 125 126 
					128 127 126 
					129 127 128 
					130 129 128 
					131 129 130 
					132 131 130 
					133 131 132 
					117 133 132 
					110 109 118 
					119 110 118 
					111 110 119 
					121 111 119 
					112 111 121 
					123 112 121 
					113 112 123 
					125 113 123 
					114 113 125 
					127 114 125 
					115 114 127 
					129 115 127 
					116 115 129 
					131 116 129 
					109 116 131 
					133 109 131 
					136 135 134 
					137 136 134 
					138 136 137 
					139 138 137 
					140 138 139 
					141 140 139 
					142 140 141 
					143 142 141 
					144 142 143 
					145 144 143 
					146 144 145 
					147 146 145 
					148 146 147 
					149 148 147 
					150 148 149 
					134 150 149 
					120 117 135 
					136 120 135 
					122 120 136 
					138 122 136 
					124 122 138 
					140 124 138 
					126 124 140 
					142 126 140 
					128 126 142 
					144 128 142 
					130 128 144 
					146 130 144 
					132 130 146 
					148 132 146 
					117 132 148 
					150 117 148 
					137 134 151 
					152 137 151 
					139 137 152 
					153 139 152 
					141 139 153 
					154 141 153 
					143 141 154 
					155 143 154 
					145 143 155 
					156 145 155 
					147 145 156 
					157 147 156 
					149 147 157 
					151 149 157 
					134 149 151 
					160 159 158 
					161 160 158 
					162 160 161 
					163 162 161 
					164 162 163 
					165 164 163 
					166 164 165 
					167 166 165 
					168 166 167 
					169 168 167 
					170 168 169 
					171 170 169 
					172 170 171 
					173 172 171 
					174 172 173 
					175 174 173 
					152 151 159 
					160 152 159 
					153 152 160 
					162 153 160 
					154 153 162 
					164 154 162 
					155 154 164 
					166 155 164 
					156 155 166 
					168 156 166 
					157 156 168 
					170 157 168 
					151 157 170 
					172 151 151 170 
					174 151 172 
					178 177 176 
					179 178 176 
					180 178 179 
					181 180 179 
					182 180 181 
					183 182 181 
					184 182 183 
					185 184 183 
					186 184 185 
					187 186 185 
					188 186 187 
					189 188 187 
					190 188 189 
					191 190 189 
					192 190 191 
					176 192 191 
					194 193 177 
					178 194 177 
					195 194 178 
					180 195 178 
					196 195 180 
					182 196 180 
					197 196 182 
					184 197 182 
					198 197 184 
					186 198 184 
					199 198 186 
					188 199 186 
					200 199 188 
					190 200 188 
					201 200 190 
					192 201 190 
					161 158 193 
					194 161 193 
					163 161 194 
					195 163 194 
					165 163 195 
					196 165 195 
					167 165 196 
					197 167 196 
					169 167 197 
					198 169 197 
					171 169 198 
					199 171 198 
					173 171 199 
					200 173 199 
					175 173 200 
					201 175 200 
					204 203 0 
					1 204 0 
					205 204 1 
					2 205 1 
					206 205 2 
					3 206 2 
					207 206 3 
					4 207 3 
					5 207 4 
					6 208 5 
					209 208 6 
					7 209 6 
					210 209 7 
					202 210 7 
					179 176 203 
					204 179 203 
					181 179 204 
					205 181 204 
					183 181 205 
					206 183 205 
					185 183 206 
					207 185 206 
					187 185 207 
					5 187 207 
					189 187 5 
					208 189 5 
					191 189 208 
					209 191 208 
					176 191 209 
					210 176 209 
				</DataArray>
				<DataArray type="Int32" Name="offsets" format="ascii">
					3 6 9 12 15 18 21 24 27 30 33 36 39 42 45 48 51 54 57 60 63 66 69 72 75 78 81 84 87 90 93 96 99 102 105 108 111 114 117 120 123 126 129 132 135 138 141 144 147 150 153 156 159 162 165 168 171 174 177 180 183 186 189 192 195 198 201 204 207 210 213 216 219 222 225 228 231 234 237 240 243 246 249 252 255 258 261 264 267 270 273 276 279 282 285 288 291 294 297 300 303 306 309 312 315 318 321 324 327 330 333 336 339 342 345 348 351 354 357 360 363 366 369 372 375 378 381 384 387 390 393 396 399 402 405 408 411 414 417 420 423 426 429 432 435 438 441 444 447 450 453 456 459 462 465 468 471 474 477 480 483 486 489 492 495 498 501 504 507 510 513 516 519 522 525 528 531 534 537 540 543 546 549 552 555 558 561 564 567 570 573 576 579 582 585 588 591 594 597 600 603 606 609 612 615 618 621 624 627 630 633 636 639 642 645 648 651 654 657 660 663 666 669 672 675 678 681 684 687 690 693 696 699 702 705 708 711 714 717 720 723 726 729 732 735 738 741 744 747 750 753 756 759 762 765 768 771 774 777 780 783 786 789 792 795 798 801 804 807 810 813 816 819 822 825 828 831 834 837 840 843 846 849 852 855 858 861 864 867 870 873 876 879 882 885 888 891 894 897 900 903 906 909 912 915 918 921 924 927 930 934 937 940 943 946 949 952 955 958 961 964 967 970 973 976 979 982 985 988 991 994 997 1000 1003 1006 1009 1012 1015 1018 1021 1024 1027 1030 1033 1036 1039 1042 1045 1048 1051 1054 1057 1060 1063 1066 1069 1072 1075 1078 1081 1084 1087 1090 1093 1096 1099 1102 1105 1108 1111 1114 1117 1120 1123 1126 1129 1132 1135 1138 1141 1144 1147 1150 1153 1156 1159 1162 1165 1168 1171 
				</DataArray>
			</Polys>
		</Piece>
	</PolyData>
</VTKFile>
