<?xml version="1.0"?>
<VTKFile type="PolyData" version="0.1" byte_order="LittleEndian" compressor="vtkZLibDataCompressor">
	<PolyData>
		<Piece NumberOfPoints="2752" NumberOfVerts="0" NumberOfLines="0" NumberOfStrips="0" NumberOfPolys="5412">
		<PointData Normals="Normals">
		<DataArray type="Float32" Name="Normals" NumberOfComponents="3" format="ascii">
			-0.999539  0.006705 -0.029620
			 0.024388 -0.999636 -0.011557
			-0.746240 -0.537439 -0.392792
			 0.124744  0.896409 -0.425311
			-0.950355 -0.213598 -0.226277
			-0.101855 -0.817332  0.567092
			-0.388446  0.730562 -0.561595
			-0.001665 -0.983843 -0.179025
			 0.985007 -0.075310  0.155211
			 0.916581  0.067046 -0.394189
			-0.530921 -0.845011 -0.063877
			-0.824359  0.553201 -0.120002
			 0.400830  0.013851 -0.916048
			 0.865288 -0.468584  0.178062
			-0.081946 -0.937044  0.339461
			-0.064714 -0.962565 -0.263211
			 0.867364 -0.036173 -0.496358
			-0.163286  0.902530  0.398469
			-0.706914 -0.647232  0.285243
			 0.840833 -0.037449 -0.539998
			-0.167420 -0.925651 -0.339325
			 0.147193  0.877170  0.457063
			-0.637334 -0.334017  0.694433
			 0.212918  0.802116  0.557921
			 0.646025 -0.003529 -0.763308
			-0.282731 -0.919154 -0.274260
			-0.584796 -0.259599  0.768519
			 0.146135  0.826819  0.543152
			-0.516023 -0.389529  0.762881
			 0.404406  0.156388 -0.901110
			-0.345649 -0.871371 -0.348194
			 0.227286  0.775778  0.588650
			-0.508027 -0.470734  0.721330
			-0.451015 -0.670895 -0.588630
			 0.274709  0.341879 -0.898696
			-0.460236 -0.390189  0.797455
			 0.404811  0.675051  0.616794
			-0.635805 -0.230687 -0.736570
			 0.316027  0.630161 -0.709242
			-0.773854 -0.254213 -0.580108
			-0.257791 -0.561058  0.786612
			 0.592766  0.513102  0.620769
			 0.243798  0.704390 -0.666632
			-0.685187 -0.478840 -0.548846
			 0.143711  0.735325 -0.662303
			-0.151407 -0.653299  0.741806
			 0.721886  0.450774  0.525056
			 0.116356  0.692359 -0.712110
			-0.710718 -0.472653 -0.521036
			 0.848721  0.427025  0.311964
			-0.041925 -0.714826  0.698044
			 0.870269  0.454340  0.190280
			 0.095457  0.752592 -0.651531
			-0.814321 -0.311174 -0.489951
			 0.152363 -0.727683  0.668777
			 0.878411  0.385131  0.282962
			 0.189762 -0.741588  0.643458
			 0.132022  0.820291 -0.556501
			-0.876651 -0.177056 -0.447365
			 0.853696  0.115855 -0.507720
			 0.526281 -0.809959  0.258835
			-0.389381 -0.632130 -0.669921
			 0.011423  0.491927 -0.870561
			-0.063654 -0.846285  0.528914
			 0.531412 -0.325245  0.782187
			 0.247859 -0.079295  0.965546
			-0.198586 -0.692818  0.693229
			 0.697224 -0.601568 -0.389865
			-0.548728 -0.613164 -0.568268
			 0.547649  0.825142  0.138641
			 0.895183  0.402813 -0.190758
			 0.266247  0.050829  0.962564
			 0.465044  0.883113 -0.062011
			-0.259575 -0.755462  0.601580
			 0.006260  0.206303 -0.978468
			 0.497094  0.541391 -0.678081
			-0.511010 -0.617513 -0.597952
			-0.179290  0.376827 -0.908767
			 0.028607  0.440988 -0.897057
			 0.058000  0.629592 -0.774758
			 0.460208  0.868812 -0.182685
			 0.233866  0.112452  0.965744
			-0.005068  0.359521 -0.933123
			-0.191995 -0.669035  0.718004
			-0.466963 -0.691128 -0.551622
			-0.101683  0.342091 -0.934149
			-0.073514  0.288090 -0.954777
			 0.397261  0.723651 -0.564369
			 0.025050  0.152737 -0.987949
			 0.288658  0.425136  0.857867
			 0.022032  0.237336 -0.971178
			-0.236740 -0.644460  0.727066
			-0.170047 -0.140722 -0.975336
			 0.440047  0.708822 -0.551299
			 0.222793  0.179241 -0.958246
			 0.194122  0.108691 -0.974937
			 0.205888  0.599456  0.773475
			-0.062509 -0.262278 -0.962966
			-0.377730 -0.476539  0.793871
			 0.396410  0.288087 -0.871702
			 0.483919  0.674073 -0.558076
			 0.346167  0.129358 -0.929212
			-0.183050 -0.827197 -0.531261
			 0.049756  0.631432  0.773833
			-0.478014 -0.584485  0.655652
			 0.459707  0.264675 -0.847713
			 0.441202  0.137569 -0.886801
			 0.510214  0.703057 -0.495371
			-0.105852 -0.820656 -0.561532
			-0.524087 -0.566204  0.636196
			-0.107041  0.590420  0.799967
			 0.575844  0.253202 -0.777362
			 0.563822  0.216721 -0.796955
			 0.088148 -0.779843 -0.619738
			 0.553641  0.695944 -0.457323
			-0.596016 -0.588385  0.546414
			-0.259471  0.666919  0.698494
			 0.721270  0.272499 -0.636799
			 0.710351  0.230480 -0.665041
			 0.272456 -0.708415 -0.651088
			-0.630279 -0.690487  0.354931
			 0.553494  0.782037 -0.286465
			-0.425712  0.558275  0.712108
			 0.847683  0.201904 -0.490580
			 0.754142  0.593412 -0.281305
			 0.326775 -0.684856 -0.651299
			-0.693576 -0.707559  0.135321
			-0.693255  0.120447  0.710556
			 0.658317  0.747113 -0.091878
			 0.335169 -0.651700 -0.680404
			 0.969813  0.111581 -0.216824
			 0.874278  0.478097  0.084030
			-0.803941 -0.565797 -0.183176
			-0.836524  0.291639  0.463870
			 0.694626  0.673657  0.252350
			-0.732696 -0.550245 -0.400482
			 0.544925 -0.676946 -0.494774
			 0.998758 -0.042114  0.026627
			 0.851870  0.431940  0.296219
			-0.996374  0.084962  0.004518
			 0.061773  0.860288  0.506052
			-0.990870 -0.058726 -0.121355
			-0.479750 -0.752181 -0.451735
			 0.627257 -0.727251 -0.278668
			 0.967350 -0.211816  0.139166
			 0.790716  0.427107  0.438575
			-0.309937  0.871168  0.380795
			-0.897129 -0.116389 -0.426160
			-0.225892 -0.840585 -0.492330
			 0.441519 -0.894652 -0.068257
			 0.820851 -0.338736  0.459848
			 0.679751  0.450593  0.578710
			-0.091041  0.994128  0.058483
			-0.524806 -0.051739 -0.849648
			 0.178946 -0.773689 -0.607770
			 0.878717  0.111160  0.464220
			 0.552821  0.477921  0.682628
			 0.388767  0.717208 -0.578336
			 0.561234 -0.562746  0.606905
			 0.960661  0.180277  0.211258
			 0.593265  0.174770  0.785807
			 0.595403 -0.674652 -0.436280
			 0.317896 -0.469645  0.823636
			 0.515611  0.546824 -0.659644
			 0.201790  0.888392 -0.412360
			 0.404457  0.872440 -0.274342
			 0.521365  0.333831  0.785325
			-0.473046 -0.869278  0.143469
			-0.384081  0.131972 -0.913819
			 0.285054 -0.308187  0.907615
			-0.290767  0.622310 -0.726763
			-0.088382  0.469121 -0.878700
			-0.417867  0.022225 -0.908237
			-0.591626  0.135912 -0.794674
			 0.375921  0.865707 -0.330508
			-0.067476  0.261890 -0.962736
			 0.386902  0.396805  0.832378
			-0.529741 -0.844422  0.079533
			 0.097320 -0.292482  0.951306
			-0.230990 -0.012341 -0.972878
			-0.479786 -0.856448 -0.190534
			 0.048964  0.233872 -0.971034
			 0.389962  0.814272 -0.429989
			-0.053638  0.013029 -0.998475
			 0.294606  0.499444  0.814717
			-0.135350 -0.491417  0.860343
			-0.334048 -0.739571 -0.584334
			 0.032468 -0.021830 -0.999234
			 0.040556 -0.045278 -0.998151
			 0.425066  0.645733 -0.634309
			-0.270756 -0.702275 -0.658408
			 0.110861  0.373690  0.920905
			-0.304294 -0.664423  0.682603
			 0.058740 -0.164923 -0.984556
			-0.352733 -0.935712 -0.004838
			 0.129626 -0.043162 -0.990623
			 0.426355  0.824890 -0.371184
			-0.181048 -0.254127  0.950074
			-0.012468  0.279567  0.960045
			 0.135350 -0.252811 -0.958001
			-0.489002 -0.842062  0.227615
			-0.123266  0.136088  0.982998
			 0.242946 -0.009352 -0.969995
			 0.367717  0.920376  0.133013
			-0.090327  0.294178  0.951473
			 0.288553 -0.398898 -0.870412
			-0.366906 -0.827237  0.425510
			-0.216599  0.300501  0.928862
			-0.314850  0.193258  0.929258
			 0.456146  0.311677 -0.833539
			 0.146065  0.921964  0.358675
			-0.354395 -0.924100  0.142981
			 0.490159 -0.276142 -0.826735
			-0.453688  0.173229  0.874162
			-0.413798  0.364541  0.834195
			 0.047206  0.946909  0.318016
			 0.570029  0.473621 -0.671380
			-0.667680 -0.092632  0.738663
			-0.110719 -0.978356 -0.174818
			 0.691539 -0.185299 -0.698168
			-0.625163  0.273082  0.731161
			-0.100753  0.907831  0.407053
			 0.685768  0.542453 -0.485250
			-0.834548 -0.368031  0.409978
			-0.857970  0.120501  0.499367
			 0.110630 -0.913358 -0.391839
			 0.896066 -0.031640 -0.442791
			-0.505867  0.710896  0.488595
			 0.634066  0.772811 -0.026879
			-0.824967 -0.559396 -0.080659
			-0.984519  0.071907  0.159850
			-0.536129  0.774188  0.336449
			 0.341914 -0.826569 -0.447079
			 0.977682 -0.136383 -0.159806
			 0.594552  0.768259  0.237247
			-0.504757 -0.784501 -0.360248
			-0.997531  0.031282 -0.062882
			-0.268865  0.919802  0.285788
			 0.685278  0.656570  0.315135
			 0.417483 -0.851635 -0.316901
			 0.942736 -0.332114  0.030803
			-0.138774 -0.907089 -0.397405
			-0.782861 -0.469528 -0.408255
			-0.476794  0.850926 -0.220436
			 0.655022  0.636318  0.407487
			 0.884992 -0.212368  0.414353
			 0.115458 -0.973926 -0.195288
			-0.339110 -0.831512 -0.439991
			-0.571466 -0.252938 -0.780672
			 0.766317  0.536554  0.353366
			 0.144995  0.574779 -0.805361
			 0.302543 -0.896888 -0.322583
			 0.394380  0.918932  0.005414
			 0.695416  0.144892  0.703848
			 0.781545  0.503245 -0.368689
			-0.435800  0.531366 -0.726449
			-0.024614  0.450568 -0.892403
			 0.349635  0.932685  0.088626
			 0.525547  0.131083  0.840606
			 0.258842 -0.531330  0.806653
			 0.381370 -0.534172  0.754465
			 0.899969  0.014544  0.435710
			 0.759283 -0.512119 -0.401526
			-0.351527  0.408540 -0.842332
			-0.256570  0.078492 -0.963333
			-0.712156 -0.034365 -0.701180
			 0.334245  0.940153  0.066272
			 0.350627  0.128911  0.927601
			 0.145372 -0.360723  0.921274
			-0.360750 -0.932049  0.033827
			-0.430715 -0.896609 -0.102848
			-0.537072 -0.841580 -0.057420
			-0.473533 -0.587774 -0.655963
			-0.561853 -0.066105 -0.824592
			-0.181683  0.329000 -0.926688
			 0.214638  0.114119  0.970004
			 0.350782  0.932227  0.088907
			-0.012338 -0.358637  0.933395
			-0.372412 -0.927261 -0.038693
			-0.390891 -0.205102 -0.897295
			-0.253877 -0.295363 -0.921036
			 0.029652  0.408986 -0.912059
			 0.072949  0.110746  0.991168
			-0.143017 -0.371805  0.917228
			 0.364125  0.922093  0.130989
			-0.360378 -0.921622 -0.144017
			-0.139614 -0.287975 -0.947406
			 0.183180  0.426900 -0.885552
			-0.314560 -0.463740  0.828249
			-0.013933  0.325871  0.945312
			-0.275675 -0.934726 -0.224257
			 0.361430  0.932324 -0.011814
			 0.072495 -0.203353 -0.976418
			 0.249602  0.361138 -0.898486
			-0.409022 -0.551484  0.727026
			-0.229036 -0.916382 -0.328307
			-0.097562  0.367694  0.924815
			 0.238024 -0.176972 -0.955000
			 0.352193  0.935922 -0.003076
			 0.386981  0.421874 -0.819920
			-0.436491 -0.632393  0.639965
			-0.164599 -0.917763 -0.361412
			 0.311296 -0.208158 -0.927235
			-0.224357  0.421241  0.878760
			 0.513548  0.521846 -0.681135
			 0.291809  0.952436  0.087823
			-0.609835 -0.444843  0.655908
			 0.111052 -0.889516 -0.443203
			 0.463994 -0.228781 -0.855786
			 0.573038  0.547537 -0.609779
			-0.463971  0.416740  0.781702
			 0.094076  0.943778  0.316910
			-0.791914 -0.110147  0.600617
			 0.076567 -0.938348 -0.337106
			 0.701238 -0.208682 -0.681702
			 0.673043  0.623088 -0.398466
			-0.174585  0.884634  0.432369
			-0.682964  0.211220  0.699247
			-0.890412 -0.437362  0.126020
			 0.080515 -0.930199 -0.358117
			 0.902060 -0.184897 -0.390002
			 0.911011  0.352311 -0.214328
			-0.069887  0.932024  0.355594
			-0.867748  0.230946  0.440088
			-0.918147 -0.366280 -0.151145
			-0.046422 -0.900657 -0.432044
			 0.946109 -0.291826 -0.140410
			 0.993429  0.114227  0.007162
			 0.354662  0.885923  0.298923
			-0.888005  0.410939  0.206340
			-0.223798 -0.932730 -0.282718
			-0.921869 -0.284437 -0.263161
			 0.868343 -0.494747  0.034735
			 0.968679  0.139901  0.205156
			 0.411003  0.885014  0.218692
			-0.857243  0.514912  0.000145
			 0.652918 -0.539486  0.531651
			-0.467441 -0.851967 -0.235904
			-0.866717 -0.223077 -0.446136
			 0.847299  0.272728  0.455746
			 0.452300  0.881420  0.136103
			-0.734393  0.634418 -0.241207
			 0.790264  0.259943 -0.554899
			 0.910470 -0.345527  0.227276
			-0.078274 -0.855807 -0.511339
			-0.386897  0.425898 -0.817877
			-0.290515 -0.416482 -0.861477
			 0.593235  0.802176 -0.067717
			-0.762122  0.004682 -0.647416
			-0.168707  0.442522 -0.880745
			-0.345028  0.145023 -0.927321
			-0.249512  0.833445 -0.493065
			-0.349755 -0.926793  0.136845
			-0.461313 -0.886203  0.042819
			-0.556526 -0.048885 -0.829391
			 0.959254 -0.050962 -0.277911
			 0.725266  0.630891 -0.275617
			 0.477413 -0.823086 -0.307581
			-0.324719  0.516604 -0.792261
			 0.625284  0.665655  0.407336
			 0.359973 -0.180285  0.915378
			 0.503502 -0.219287  0.835703
			-0.366065 -0.930313  0.022674
			 0.582746 -0.427984  0.690823
			-0.439067 -0.060209 -0.896435
			 0.693802  0.253211  0.674183
			 0.900210  0.354283  0.253193
			 0.235032  0.971975  0.004970
			-0.243062  0.500192 -0.831101
			 0.155678 -0.252668  0.954947
			 0.390720  0.414473  0.821918
			 0.472249  0.396238  0.787386
			 0.543396  0.354380  0.761010
			-0.474375 -0.865052 -0.163261
			-0.323676 -0.073084 -0.943341
			 0.303090  0.950655  0.066266
			-0.034117  0.521000 -0.852875
			-0.109905 -0.392724  0.913065
			 0.288773  0.475108  0.831193
			 0.431966  0.896024 -0.102698
			 0.379016  0.925387 -0.002534
			-0.445038 -0.854804 -0.266930
			-0.116789 -0.109312 -0.987123
			 0.140829  0.421294 -0.895923
			-0.287485 -0.379466  0.879408
			 0.087600  0.463172  0.881929
			 0.421198  0.904327  0.069173
			 0.311025  0.406006 -0.859315
			-0.383990 -0.899728 -0.207465
			 0.081238 -0.137851 -0.987116
			-0.400321 -0.274768  0.874211
			-0.088210  0.478589  0.873597
			 0.282554  0.924261  0.256719
			 0.432429  0.462288 -0.774141
			 0.218388 -0.223674 -0.949882
			-0.319916 -0.937195 -0.138994
			-0.261190  0.468028  0.844233
			-0.484214 -0.186839  0.854768
			 0.150736  0.919966  0.361858
			 0.506932  0.609154 -0.609877
			 0.322571 -0.329664 -0.887282
			-0.291931 -0.951449 -0.097573
			 0.166967  0.944156  0.284061
			-0.382339  0.442519  0.811168
			-0.605573 -0.160375  0.779462
			 0.606284  0.510820 -0.609494
			 0.435602 -0.355599 -0.826922
			-0.282556 -0.951747 -0.119750
			 0.679386  0.504406 -0.532925
			 0.045990  0.952425  0.301283
			-0.524680  0.484074  0.700274
			-0.735236 -0.286497  0.614287
			 0.606818 -0.301087 -0.735607
			-0.183518 -0.961233 -0.205799
			 0.922685  0.104295 -0.371181
			 0.792973 -0.385668 -0.471650
			 0.346629  0.929669  0.124756
			-0.691580  0.495286  0.525745
			-0.905896 -0.274322  0.322646
			-0.093660 -0.928176 -0.360164
			 0.992734 -0.047476 -0.110563
			 0.820609 -0.514150 -0.249502
			 0.363633 -0.842514 -0.397419
			 0.533687  0.801260  0.270483
			-0.782180  0.562624  0.267672
			-0.958744 -0.273731 -0.076684
			 0.986177 -0.070716  0.149846
			 0.859923 -0.498810  0.108259
			 0.138473 -0.937880 -0.318130
			-0.704693 -0.550346 -0.447802
			 0.214987  0.916921  0.336208
			-0.893660  0.448288 -0.020248
			 0.885564 -0.114758  0.450118
			 0.419627  0.805852  0.417751
			 0.111349 -0.992920  0.041364
			-0.699167 -0.576210 -0.423258
			-0.907548  0.197938 -0.370376
			 0.917874 -0.373231 -0.134931
			 0.922255  0.371742 -0.106081
			-0.338199  0.776684 -0.531397
			 0.226602 -0.859435 -0.458283
			-0.518895 -0.166468 -0.838472
			-0.288696  0.782532  0.551633
			-0.531060  0.145822  0.834692
			-0.135618  0.794836  0.591476
			 0.633880  0.707930 -0.311498
			-0.372743  0.835385  0.403974
			-0.663673  0.258103  0.702083
			 0.623816  0.778208 -0.072427
			-0.618660 -0.266173  0.739197
			-0.515129 -0.340983  0.786367
			-0.415211  0.120693  0.901683
			 0.578666  0.664509 -0.472836
			 0.045583  0.850481  0.524028
			 0.818661 -0.297424 -0.491256
			 0.663112 -0.229277 -0.712541
			-0.829111  0.223743  0.512361
			 0.576664  0.795376  0.186642
			-0.340592  0.890786  0.300829
			-0.750337 -0.232155  0.618949
			 0.846193 -0.469535 -0.251981
			-0.264599 -0.958759 -0.103771
			-0.246973 -0.946860 -0.206058
			-0.396808 -0.321084  0.859912
			-0.271650 -0.949371 -0.157798
			-0.252787  0.138087  0.957617
			 0.517750 -0.231576 -0.823594
			 0.526530  0.582190 -0.619533
			 0.140547  0.875924  0.461523
			-0.029399 -0.922659 -0.384495
			-0.106152 -0.939316 -0.326218
			-0.220364 -0.954570 -0.200590
			-0.909561 -0.132831  0.393770
			-0.950869  0.268012  0.154978
			 0.683534  0.636139  0.357921
			 0.685191 -0.728334  0.006539
			-0.097436  0.954588  0.281544
			-0.485857 -0.782644 -0.389116
			 0.374238 -0.288011 -0.881474
			 0.222658 -0.277054 -0.934700
			-0.299328 -0.909031 -0.289939
			-0.254696 -0.435670  0.863320
			 0.037428 -0.253023 -0.966736
			-0.031265  0.223427  0.974219
			 0.385256  0.588064 -0.711167
			 0.219598  0.893918  0.390752
			-0.956062 -0.054950 -0.287969
			-0.983236 -0.182103 -0.009210
			-0.792103  0.610379  0.003289
			 0.590947 -0.719297  0.365231
			 0.780558  0.323847  0.534652
			-0.667899 -0.587802 -0.456508
			 0.217239  0.921336  0.322409
			-0.849588  0.211231 -0.483304
			 0.225587  0.542468 -0.809221
			-0.177733 -0.269080 -0.946577
			-0.301566 -0.948467 -0.097305
			-0.008303 -0.290788  0.956751
			 0.010577  0.462765 -0.886418
			 0.141155  0.199349  0.969709
			 0.271808  0.879793  0.389980
			-0.602776  0.761939 -0.236875
			-0.552571 -0.470648 -0.687863
			 0.960333 -0.203354 -0.190809
			 0.763529  0.644909 -0.033410
			-0.762396  0.214434 -0.610549
			-0.003572  0.965617 -0.259946
			-0.319877  0.475225 -0.819658
			-0.220836  0.314970 -0.923052
			-0.394443 -0.308038 -0.865752
			-0.305045 -0.947633  0.094547
			 0.195037 -0.359024  0.912722
			 0.345769  0.928523  0.135238
			 0.387044  0.241948  0.889752
			-0.400814  0.324383 -0.856810
			 0.355207  0.934570 -0.020165
			-0.572408 -0.381198 -0.725973
			-0.270079 -0.953249  0.135548
			 0.401605 -0.323461  0.856788
			 0.559876  0.246885  0.790940
			-0.571743  0.356929 -0.738723
			 0.364386  0.919863 -0.145171
			 0.735246  0.290073  0.612595
			-0.716587 -0.371755 -0.590171
			-0.360202 -0.919145  0.159455
			 0.586474 -0.274597  0.762000
			-0.638331  0.422268 -0.643602
			 0.339342  0.934594 -0.106679
			 0.814493  0.324995  0.480603
			 0.735935 -0.215322  0.641901
			-0.830518 -0.269216 -0.487610
			-0.303943 -0.926566  0.221572
			-0.359647  0.043786 -0.932060
			 0.387438  0.622605 -0.679893
			 0.908248  0.396323  0.134217
			 0.894008 -0.111280 -0.434011
			 0.384602 -0.923025 -0.010317
			-0.515313 -0.251750 -0.819192
			 0.278727  0.540689  0.793704
			 0.407511  0.177065  0.895870
			 0.431298  0.517527  0.739019
			 0.091201  0.471503  0.877136
			 0.166907  0.034677  0.985363
			 0.237272  0.955782  0.173732
			 0.215797  0.976121  0.024883
			 0.120014 -0.795777  0.593578
			 0.582227  0.018422  0.812818
			 0.045275 -0.804418  0.592337
			 0.315208  0.917180  0.243774
			 0.590981  0.501551  0.631813
			-0.119266 -0.161005  0.979721
			 0.294798  0.940908  0.166693
			-0.176563  0.325924  0.928762
			-0.183109 -0.881578  0.435077
			 0.117133  0.455126 -0.882689
			 0.336944  0.345476 -0.875851
			-0.049056  0.449174 -0.892096
			-0.069005 -0.903652  0.422673
			-0.530574 -0.622262 -0.575570
			-0.784147 -0.445017 -0.432520
			 0.751874 -0.135488  0.645236
			-0.404723 -0.624655 -0.667836
			-0.088314  0.713939 -0.694617
			 0.442647  0.847811  0.292027
			 0.779204  0.450781  0.435474
			-0.321073 -0.915621  0.241974
			-0.329704 -0.156530  0.931018
			 0.471291  0.265489 -0.841071
			 0.201492  0.922872  0.328188
			-0.315276  0.337400  0.886996
			-0.256559 -0.577893 -0.774737
			 0.008414 -0.536115 -0.844103
			-0.082887 -0.441327 -0.893510
			 0.050751 -0.690127 -0.721907
			-0.903635 -0.357920 -0.235238
			 0.085195 -0.906154  0.414278
			-0.089290  0.763600 -0.639485
			-0.596552  0.411810 -0.688867
			-0.801014  0.385086 -0.458351
			 0.876430 -0.119499  0.466466
			 0.709840  0.607318  0.356781
			 0.890224  0.355091  0.285327
			-0.403476 -0.902804  0.148835
			-0.367864  0.102969  0.924161
			 0.191778 -0.610684 -0.768301
			 0.630080  0.186982 -0.753683
			 0.174793  0.889555  0.422066
			-0.356878  0.467817  0.808570
			-0.505673 -0.759509  0.409194
			-0.634402 -0.737016  0.233113
			-0.673833 -0.169009 -0.719295
			-0.549172 -0.553380 -0.626243
			 0.672788 -0.739831 -0.002494
			 0.479720  0.874129 -0.075945
			-0.434680  0.753460 -0.493306
			 0.847102 -0.138268 -0.513128
			 0.906821  0.184058 -0.379208
			-0.526315  0.165697  0.833988
			 0.235038 -0.676983 -0.697461
			-0.469998 -0.856204 -0.214515
			 0.787196  0.231169 -0.571737
			 0.040815  0.887922  0.458180
			-0.504783  0.486946  0.712796
			-0.610721  0.294435  0.735070
			 0.321982 -0.821727 -0.470204
			-0.872934 -0.468288  0.136725
			 0.950864  0.143309 -0.274445
			 0.150417  0.897996  0.413496
			-0.683903  0.500549  0.530780
			 0.690945 -0.675845 -0.256572
			-0.554226 -0.798122 -0.236294
			-0.922785  0.353266  0.153854
			 0.990393  0.132582  0.039281
			 0.062338  0.924869  0.375142
			 0.568219 -0.819287  0.076786
			-0.880558  0.429360 -0.200667
			-0.821741 -0.441493 -0.360315
			 0.053693  0.984091  0.169356
			 0.941147  0.080242  0.328336
			-0.267595 -0.962736  0.039151
			 0.676597 -0.566065  0.470943
			 0.119195  0.991301  0.055804
			-0.778353  0.380005 -0.499763
			-0.876690 -0.199522 -0.437729
			 0.854887 -0.000854  0.518814
			-0.651228 -0.179053 -0.737457
			 0.279480 -0.832923 -0.477630
			 0.740371 -0.635371  0.219440
			-0.231415  0.740313 -0.631177
			 0.699490  0.284580 -0.655537
			-0.560645  0.363462 -0.744024
			 0.072886  0.703075  0.707371
			-0.133015  0.266054  0.954737
			 0.096969  0.197360  0.975523
			 0.002475  0.711570  0.702611
			 0.481861  0.835438 -0.264296
			 0.381570  0.870341 -0.311306
			 0.272207  0.674231  0.686525
			-0.233241 -0.016080  0.972286
			-0.233877 -0.516339  0.823830
			-0.253286  0.356196  0.899428
			-0.323963 -0.902339  0.284310
			 0.402265  0.109492  0.908952
			 0.589833  0.799135 -0.116106
			-0.132053  0.685794  0.715715
			 0.262780 -0.208791 -0.941994
			 0.441352 -0.225780 -0.868465
			 0.130324 -0.114684 -0.984816
			 0.287711  0.939997 -0.183378
			 0.436904  0.603853  0.666691
			-0.450905  0.016872  0.892413
			-0.428380 -0.853655  0.296251
			-0.364025 -0.931382  0.003667
			-0.414973 -0.701831 -0.578990
			-0.419590  0.358119  0.834083
			-0.570856 -0.389059 -0.723019
			-0.264178 -0.946920  0.183172
			 0.558900  0.000696  0.829235
			 0.602867 -0.287369 -0.744292
			 0.583718  0.810723  0.044735
			-0.180946  0.738054  0.650026
			-0.552291 -0.828475  0.092762
			-0.665979 -0.736062  0.121180
			-0.256538 -0.858252 -0.444514
			-0.108404  0.016966 -0.993962
			 0.198573  0.964347 -0.174941
			 0.545298  0.451620  0.706179
			-0.571756  0.081959  0.816320
			-0.326504 -0.046191 -0.944066
			-0.485263  0.002807 -0.874364
			-0.436548  0.480349  0.760717
			-0.619041  0.069840 -0.782247
			-0.703386 -0.247779 -0.666224
			-0.310140 -0.932378  0.185701
			 0.651890 -0.087980  0.753192
			 0.737702 -0.431405 -0.519313
			 0.212173 -0.843276 -0.493830
			 0.663769  0.742509  0.089956
			-0.158871  0.843623  0.512894
			-0.692699  0.119988  0.711175
			-0.914240  0.065558  0.399834
			 0.223467  0.968390 -0.110826
			 0.682495  0.274300  0.677466
			 0.279496  0.934046 -0.222353
			-0.690116  0.477817  0.543536
			 0.282990  0.919603 -0.272483
			-0.716803  0.283065 -0.637234
			-0.830648 -0.138898 -0.539195
			-0.340727 -0.900165  0.271309
			 0.752213 -0.161264  0.638881
			 0.078400 -0.942324 -0.325391
			 0.853208 -0.495380 -0.163204
			-0.857497 -0.479691 -0.185997
			 0.751375  0.628949  0.199646
			-0.310074  0.888765  0.337567
			-0.860707  0.462279  0.213263
			 0.831893  0.269021  0.485367
			 0.205587  0.954820 -0.214600
			 0.910831  0.294395  0.289342
			-0.833356  0.387297 -0.394359
			-0.933548 -0.189384 -0.304338
			-0.103005 -0.940315  0.324342
			 0.866289 -0.215927  0.450465
			-0.049543 -0.998711 -0.010996
			-0.917089 -0.070571 -0.392387
			 0.909955 -0.337460  0.241046
			-0.737166  0.657010 -0.157875
			 0.687932  0.674464  0.268044
			-0.539379  0.828544 -0.150282
			-0.235202  0.771339 -0.591368
			 0.836363  0.193445 -0.512909
			 0.930342 -0.192835 -0.311896
			-0.502412 -0.139887 -0.853237
			-0.837058 -0.392709 -0.380937
			 0.314338 -0.800262 -0.510659
			 0.174506 -0.924676  0.338411
			-0.884646 -0.304131 -0.353420
			-0.580253  0.646588 -0.495208
			 0.759842 -0.307852  0.572596
			-0.564000  0.622848 -0.542184
			 0.409598  0.912265  0.001549
			-0.610560 -0.323126 -0.723053
			 0.355754 -0.895354 -0.267919
			-0.545796  0.482065 -0.685361
			-0.413718  0.701484 -0.580307
			 0.960634 -0.004992  0.277774
			-0.056396  0.564278 -0.823656
			 0.299963  0.431501  0.850781
			-0.689172 -0.612268  0.387518
			-0.410485 -0.865586  0.286815
			 0.055446  0.619985  0.782652
			 0.514762  0.836251  0.188959
			 0.525249  0.794355  0.305144
			 0.478562  0.176517  0.860128
			 0.010008  0.514857 -0.857218
			-0.715506 -0.586113  0.380163
			 0.283028  0.282667 -0.916512
			-0.216815 -0.953321  0.210167
			-0.158232  0.689338 -0.706948
			 0.511315  0.840612  0.178684
			-0.077199  0.628134  0.774266
			 0.483551 -0.004809 -0.875303
			 0.386430  0.093750 -0.917542
			 0.557098  0.714963  0.422458
			 0.542122  0.146363  0.827455
			 0.529747  0.678966  0.508305
			-0.769201 -0.577925  0.272639
			-0.187937 -0.946655  0.261770
			-0.174410  0.678909 -0.713206
			 0.551995  0.647888  0.524921
			 0.604092  0.787402  0.122763
			 0.628585 -0.186583 -0.755028
			-0.153087  0.706694  0.690759
			-0.835174 -0.523603  0.168295
			 0.555163  0.052521  0.830082
			-0.387309 -0.908884  0.154666
			-0.224740  0.688833 -0.689203
			 0.676035  0.614659  0.406412
			 0.603474 -0.219421  0.766599
			 0.657718  0.742050  0.129496
			 0.744850 -0.435321 -0.505662
			-0.845846 -0.529197  0.067046
			-0.313367  0.765305  0.562236
			-0.492616 -0.869730  0.029989
			-0.291010  0.750157 -0.593782
			 0.769856  0.584312  0.256713
			 0.665528 -0.392483  0.634846
			 0.871306 -0.457983 -0.176286
			 0.578624  0.809132  0.102462
			-0.782989 -0.621748  0.018923
			-0.483475  0.819698  0.307161
			-0.621332 -0.782457  0.041337
			-0.195446  0.769622 -0.607851
			 0.852537  0.505203  0.133982
			 0.660785 -0.534132  0.527319
			-0.552850 -0.833237 -0.008566
			 0.967436 -0.235958  0.091604
			 0.275790  0.931298 -0.237959
			-0.796506  0.528856 -0.293071
			-0.474009 -0.829816 -0.294486
			-0.719478 -0.092355 -0.688347
			 0.867802  0.490240 -0.081145
			 0.491816 -0.715947 -0.495516
			-0.913809  0.134233 -0.383321
			-0.132448 -0.967899  0.213611
			 0.998547  0.038732  0.037472
			-0.166704  0.878348 -0.448012
			-0.335688  0.686584 -0.644915
			-0.192313 -0.913423 -0.358711
			 0.441095  0.634286 -0.634915
			 0.303010 -0.478210 -0.824318
			 0.852896  0.366162 -0.372147
			 0.899308  0.429001 -0.084869
			 0.403467 -0.786793 -0.467088
			-0.779903 -0.540110  0.316281
			 0.301789 -0.534398 -0.789520
			-0.820101 -0.569249  0.058218
			 0.912811  0.364533 -0.184100
			 0.252200  0.646326  0.720179
			-0.064065  0.000968  0.997945
			 0.856662 -0.390788  0.336772
			-0.330375 -0.640366  0.693386
			-0.764887 -0.077816  0.639447
			-0.770611 -0.032659  0.636468
			 0.321264 -0.635623 -0.701977
			-0.846605 -0.531627 -0.025153
			-0.837707  0.025514  0.545524
			-0.170942  0.532133  0.829225
			 0.940013  0.339232 -0.036027
			-0.384270  0.537934  0.750309
			 0.375354 -0.649098 -0.661650
			-0.856698 -0.476010 -0.198704
			-0.894310  0.121105  0.430747
			-0.466515  0.617304  0.633482
			 0.896370  0.399493  0.192162
			 0.559025 -0.681345 -0.472504
			-0.713132 -0.572087 -0.405165
			-0.961128  0.130633  0.243245
			-0.337595  0.670290  0.660864
			 0.910068  0.301310  0.284585
			 0.536334 -0.747617 -0.391681
			-0.578890 -0.677244 -0.454122
			-0.989707  0.117143  0.082201
			-0.307665  0.732956  0.606727
			 0.897412  0.215483  0.384992
			 0.532501 -0.815068 -0.228269
			-0.625882 -0.611240 -0.484415
			-0.961040  0.274853 -0.029278
			-0.134103  0.799734  0.585186
			 0.880425  0.114763  0.460089
			 0.462825 -0.874468 -0.145254
			-0.661821 -0.657460 -0.360193
			-0.937806  0.344672 -0.041483
			 0.003048  0.862583  0.505907
			 0.848856 -0.076359  0.523080
			 0.708600 -0.577350 -0.405651
			-0.272231 -0.259235 -0.926654
			-0.935941  0.251972 -0.246016
			-0.177525  0.902430 -0.392562
			 0.947111  0.259488 -0.188802
			-0.253751 -0.549662  0.795916
			 0.319733 -0.837344  0.443424
			-0.115008 -0.628126  0.769566
			 0.337749  0.357265  0.870797
			-0.316512 -0.463562  0.827605
			-0.351158 -0.875131  0.332917
			 0.189397  0.433520  0.881016
			 0.148757 -0.386316 -0.910292
			 0.685627 -0.018608  0.727715
			 0.960541  0.200039 -0.193248
			 0.433529  0.777129 -0.456206
			 0.429143  0.761814 -0.485259
			-0.512457 -0.821705  0.249376
			-0.349036 -0.426411  0.834474
			 0.140190  0.403085  0.904361
			-0.214146 -0.253707 -0.943279
			 0.486766  0.736976 -0.468962
			-0.137905 -0.334458 -0.932266
			-0.528550 -0.729082  0.434827
			-0.459420 -0.389890  0.798072
			 0.029084  0.439872  0.897589
			 0.560964  0.754749 -0.340107
			-0.216700 -0.493891 -0.842088
			-0.591833 -0.702702  0.394897
			-0.579171 -0.357641  0.732566
			-0.009408  0.589345  0.807827
			 0.575559  0.740370 -0.347251
			 0.011498 -0.544241 -0.838850
			-0.579648 -0.702733  0.412523
			-0.599833 -0.281372  0.749019
			-0.043147  0.629873  0.775498