<?xml version="1.0"?>
<VTKFile type="PolyData" version="0.1" byte_order="LittleEndian" compressor="vtkZLibDataCompressor">
	<PolyData>
		<Piece NumberOfPoints="770" NumberOfVerts="0" NumberOfLines="0" NumberOfStrips="0" NumberOfPolys="1550">
		<PointData Normals="Normals">
		<DataArray type="Float32" Name="Normals" NumberOfComponents="3" format="ascii">
			-0.321182 -0.862290 -0.391534
			-0.883342 -0.387245  0.264099
			-0.725873 -0.489763 -0.482950
			-0.688106 -0.544092  0.480077
			 0.398446 -0.904375  0.152796
			-0.915735 -0.191370  0.353281
			 0.234156 -0.499015 -0.834359
			 0.521423 -0.624247 -0.581751
			-0.958887 -0.052684  0.278856
			-0.965684  0.142557  0.217100
			 0.331590 -0.308185 -0.891667
			-0.874973 -0.279351 -0.395455
			-0.455699 -0.374399  0.807567
			-0.818532 -0.121660  0.561431
			 0.703919 -0.486754  0.517270
			 0.870136 -0.381817 -0.311576
			-0.917123  0.018952  0.398154
			 0.895916 -0.188320 -0.402331
			 0.801764 -0.104511 -0.588431
			-0.943106  0.273308  0.189348
			-0.925196  0.282749  0.253111
			-0.928402  0.129686  0.348212
			 0.862704 -0.000791 -0.505709
			 0.882103 -0.055182 -0.467814
			 0.266173 -0.259660 -0.928293
			-0.982490 -0.131165 -0.132321
			-0.258912 -0.279798  0.924488
			-0.764863 -0.121061  0.632716
			-0.926799  0.071057  0.368775
			 0.963135 -0.123890 -0.238792
			 0.714681 -0.350905  0.605059
			-0.947671  0.286339  0.141174
			 0.951052 -0.112525 -0.287815
			-0.930990  0.344902  0.119586
			-0.891119  0.097978  0.443066
			-0.901534  0.158191  0.402756
			-0.882820  0.055359  0.466438
			 0.902860 -0.044825 -0.427592
			 0.938694 -0.122101 -0.322405
			 0.857656  0.004096 -0.514208
			 0.105392 -0.207216 -0.972602
			-0.959837 -0.026734  0.279281
			-0.997441 -0.021458 -0.068191
			-0.252497 -0.315399  0.914751
			-0.782867  0.012426  0.622066
			-0.923838  0.269099  0.272231
			-0.896166  0.433539  0.094502
			 0.964984 -0.261965 -0.013457
			 0.510838 -0.474494  0.716868
			-0.885752  0.431724  0.170466
			 0.938153 -0.248232 -0.241348
			-0.856447  0.263311  0.444034
			-0.860951  0.079729  0.502401
			-0.839383  0.125771  0.528788
			-0.782822  0.198249  0.589820
			-0.889144  0.068879  0.452415
			 0.872117 -0.006849 -0.489250
			 0.869733 -0.101312 -0.483013
			 0.906844 -0.181589 -0.380343
			 0.865748 -0.076449 -0.494607
			 0.017413 -0.090319 -0.995761
			-0.871607  0.147176  0.467590
			-0.994716  0.100705 -0.019979
			-0.007168 -0.380229  0.924865
			-0.671400  0.171157  0.721060
			-0.818368  0.473937  0.325051
			-0.801500  0.587731  0.110317
			-0.787671  0.569168  0.235844
			 0.757755 -0.488249  0.432922
			 0.440562 -0.604916  0.663311
			-0.749022  0.372558  0.547874
			 0.916277 -0.396515 -0.056682
			-0.699192  0.263824  0.664476
			-0.846010  0.210990  0.489642
			-0.815083  0.249100  0.523058
			-0.749498  0.294652  0.592817
			-0.697098  0.315138  0.644005
			 0.881863 -0.092530 -0.462338
			 0.842316 -0.036891 -0.537720
			 0.798597 -0.166661 -0.578331
			 0.883109 -0.312373 -0.350060
			 0.833340 -0.129192 -0.537452
			 0.225124  0.009382 -0.974285
			-0.744108  0.172543  0.645393
			-0.880886  0.123741  0.456867
			-0.775577  0.114953  0.620698
			-0.882872  0.119853  0.454062
			-0.990248  0.118143  0.073826
			 0.057154 -0.335808  0.940195
			-0.474302  0.204967  0.856169
			-0.703954  0.560286  0.436496
			-0.707486  0.699134  0.103318
			-0.699294  0.680655  0.218396
			-0.623928  0.440137  0.645751
			 0.633211 -0.634250  0.443590
			 0.464523 -0.669250  0.579933
			-0.562376  0.283919  0.776611
			 0.767006 -0.595741  0.238319
			-0.613287  0.314375  0.724602
			-0.763202  0.189404  0.617777
			-0.738824  0.137215  0.659781
			-0.745689  0.073160  0.662265
			-0.755599  0.050498  0.653085
			 0.842931 -0.210563 -0.495106
			 0.858906 -0.119224 -0.498062
			 0.755990 -0.063417 -0.651504
			 0.663554 -0.253300 -0.703943
			 0.829811 -0.532030 -0.168398
			 0.722965 -0.146501 -0.675173
			-0.990629  0.106317 -0.085733
			-0.128706  0.077552 -0.988646
			-0.564243 -0.146038  0.812590
			-0.634952 -0.278120  0.720753
			-0.672218 -0.051222  0.738579
			 0.090387 -0.304722  0.948143
			-0.275095  0.140529  0.951091
			-0.624241  0.580121  0.523242
			-0.649743  0.748430  0.132991
			-0.682625  0.697009  0.219548
			-0.601656  0.454123  0.657101
			-0.462751  0.277924  0.841796
			 0.687082 -0.712290  0.143395
			 0.475098 -0.723501  0.500827
			-0.522656  0.261123  0.811570
			 0.724168 -0.663528  0.187912
			-0.735796  0.068178  0.673763
			-0.584142 -0.468891  0.662509
			-0.546276 -0.556859  0.625691
			-0.660708 -0.488995  0.569516
			-0.732212 -0.370336  0.571591
			 0.760712 -0.217031 -0.611731
			 0.809298 -0.269836 -0.521753
			 0.782962 -0.196048 -0.590369
			 0.562977 -0.143929 -0.813844
			 0.485069 -0.280674 -0.828209
			 0.745919 -0.620862 -0.241113
			 0.662594 -0.242287 -0.708707
			-0.621536 -0.226491  0.749930
			-0.974243  0.102433  0.200894
			-0.894618  0.281572 -0.346953
			-0.230631  0.147892 -0.961736
			-0.442322 -0.515418  0.733959
			-0.278830 -0.806658  0.521111
			-0.104748 -0.934516  0.340157
			 0.011977 -0.291283  0.956562
			-0.310049  0.121835  0.942882
			-0.616325  0.624719  0.479447
			-0.664528  0.743470  0.075198
			-0.661733  0.692376  0.287617
			-0.590653  0.444468  0.673482
			-0.498171  0.292629  0.816207
			-0.485723  0.198284  0.851326
			 0.660503 -0.748521 -0.058746
			 0.427546 -0.773915  0.467183
			-0.716111  0.041293  0.696764
			 0.634595 -0.762201  0.127828
			-0.806823 -0.257827  0.531565
			-0.004839 -0.944475  0.328547
			-0.183988 -0.873905  0.449932
			-0.515097 -0.678184  0.524159
			-0.693299 -0.497538  0.521337
			 0.679620 -0.325783 -0.657254
			 0.755704 -0.274649 -0.594542
			 0.750507 -0.313448 -0.581798
			 0.641087 -0.244216 -0.727576
			 0.376182 -0.100299 -0.921101
			 0.415392 -0.231671 -0.879647
			 0.643407 -0.699180 -0.311728
			 0.557631 -0.396217 -0.729425
			-0.505795 -0.690149  0.517557
			-0.764169 -0.303969  0.568901
			-0.884887  0.397427  0.242954
			-0.707387  0.680007  0.192858
			-0.743414  0.668787  0.007666
			-0.852193  0.506262 -0.132158
			-0.811203  0.506969  0.291431
			-0.827927  0.560831  0.002220
			 0.110594  0.065179 -0.991726
			-0.263448 -0.938888  0.221549
			 0.001673 -0.987548  0.157309
			 0.050910 -0.936781  0.346192
			-0.130397 -0.314267  0.940337
			-0.322528  0.070849  0.943905
			-0.585469  0.607440  0.536883
			-0.655490  0.748535  0.100143
			-0.690043  0.673817  0.264218
			-0.619350  0.464244  0.633153
			-0.512708  0.293820  0.806722
			-0.503111  0.146877  0.851650
			-0.652061 -0.085893  0.753286
			 0.633832 -0.763774 -0.122093
			 0.386242 -0.814473  0.432956
			-0.816650 -0.264348  0.513033
			 0.573511 -0.805858  0.147234
			-0.828588 -0.343405  0.442170
			-0.008216 -0.807999  0.589126
			-0.338000 -0.667496  0.663480
			-0.556860 -0.575741  0.598690
			-0.755119 -0.373752  0.538613
			 0.545681 -0.537382 -0.643003
			 0.668698 -0.379052 -0.639658
			 0.739730 -0.313656 -0.595331
			 0.698831 -0.319671 -0.639879
			 0.497284 -0.184436 -0.847757
			 0.303953 -0.033708 -0.952090
			 0.403957 -0.233072 -0.884588
			 0.654687 -0.689103 -0.310680
			 0.431417 -0.345621 -0.833322
			-0.858159 -0.277754  0.431759
			-0.495678 -0.848432  0.185649
			-0.651967  0.735014  0.186262
			-0.712850  0.672978  0.197348
			-0.636953  0.716610  0.284185
			-0.586241  0.625399  0.514973
			-0.557196  0.474160  0.681693
			-0.568286  0.352808  0.743356
			-0.736189  0.671183 -0.086831
			 0.141917  0.070368 -0.987374
			-0.751449 -0.595607  0.283860
			-0.623070 -0.507328  0.595316
			-0.524625 -0.244783  0.815383
			-0.091334 -0.368055  0.925307
			-0.302452  0.020205  0.952950
			-0.533447  0.557315  0.636266
			-0.653837  0.731226  0.194437
			-0.712788  0.639563  0.287910
			-0.666332  0.451157  0.593682
			-0.552812  0.314012  0.771878
			-0.514583  0.099288  0.851672
			-0.632490 -0.165971  0.756578
			-0.700677 -0.382906  0.602026
			 0.627720 -0.763933 -0.149577
			 0.421539 -0.854455  0.303662
			-0.751414 -0.408973  0.517802
			 0.622759 -0.768943  0.144564
			-0.761072 -0.318252  0.565231
			-0.658279  0.043948  0.751490
			-0.646835 -0.235452  0.725374
			-0.682489 -0.382604  0.622754
			-0.722804 -0.298881  0.623077
			 0.365309 -0.516503 -0.774451
			 0.428333 -0.632050 -0.645789
			 0.633587 -0.441414 -0.635390
			 0.690780 -0.350638 -0.632357
			 0.599439 -0.310650 -0.737679
			 0.413183 -0.176972 -0.893287
			 0.250064 -0.037555 -0.967501
			 0.321194 -0.205708 -0.924401
			 0.659792 -0.662671 -0.354318
			 0.401323 -0.217052 -0.889847
			-0.933930  0.070942  0.350344
			-0.915205  0.376182  0.144525
			-0.542023  0.825471  0.157512
			-0.649749  0.753442  0.100754
			-0.472289  0.841921  0.260983
			-0.481430  0.742162  0.466284
			-0.562074  0.585454  0.584223
			-0.427341  0.503740  0.750750
			-0.458691  0.335140  0.822973
			-0.579658  0.469629  0.665917
			-0.700517  0.696488  0.155501
			-0.102110  0.716367 -0.690211
			-0.830834  0.452083  0.324557
			-0.722588  0.580020  0.376091
			-0.562538  0.810124  0.165076
			-0.185209 -0.376112  0.907875
			-0.338074  0.070414  0.938482
			-0.490631  0.547735  0.677693
			-0.588131  0.705375  0.395662
			-0.725260  0.598635  0.340049
			-0.736818  0.414715  0.533958
			-0.691672  0.316952  0.648946
			-0.599680  0.107787  0.792948
			-0.505049 -0.246124  0.827253
			-0.484447 -0.433627  0.759789
			-0.411479 -0.580259  0.702841
			 0.659188 -0.727372 -0.190789
			 0.359756 -0.877744  0.316450
			-0.399954 -0.522174  0.753240
			 0.599989 -0.796570  0.074086
			-0.381224 -0.465833  0.798541
			-0.619167  0.648153  0.443318
			-0.794122  0.203954  0.572515
			-0.718198 -0.340115  0.607053
			-0.508975 -0.493945  0.704956
			 0.450966 -0.247095 -0.857656
			 0.324548 -0.624948 -0.710006
			 0.395931 -0.689770 -0.606182
			 0.591928 -0.486674 -0.642471
			 0.590466 -0.384537 -0.709564
			 0.509390 -0.307567 -0.803694
			 0.365591 -0.169040 -0.915297
			 0.220904 -0.020775 -0.975074
			 0.351825 -0.177068 -0.919166
			 0.606887 -0.665268 -0.434864
			 0.448143  0.647769 -0.616087
			-0.567725  0.806643 -0.164364
			-0.545528  0.833099 -0.091355
			-0.339176  0.940562  0.017387
			-0.116731  0.950808 -0.286946
			-0.234987  0.951740  0.197415
			-0.320852  0.822541  0.469553
			-0.337968  0.651389  0.679316
			-0.369752  0.242132  0.897026
			-0.310149  0.349264  0.884207
			-0.447584  0.255385  0.856999
			-0.206447  0.617859  0.758702
			-0.322408  0.937743  0.129192
			-0.484196  0.873891  0.043234
			-0.179400  0.946439 -0.268457
			-0.053727  0.985838 -0.158861
			-0.171300 -0.372502  0.912085
			-0.389011  0.018747  0.921042
			-0.604152  0.524469  0.599943
			-0.638843  0.632833  0.437496
			-0.726750  0.505198  0.465413
			-0.752444  0.349464  0.558303
			-0.743369  0.272351  0.610923
			-0.734521  0.194906  0.649992
			-0.614312 -0.024366  0.788687
			-0.380716 -0.317650  0.868420
			-0.299291 -0.518819  0.800782
			-0.178732 -0.592511  0.785484
			 0.522338 -0.809697 -0.267494
			 0.266839 -0.942366  0.201851
			 0.016074 -0.423818  0.905605
			 0.524639 -0.850408 -0.039500
			 0.422196 -0.474734  0.772255
			 0.138155  0.802370 -0.580617
			-0.707768 -0.278127  0.649392
			-0.642344  0.558933  0.524394
			-0.121788  0.900423 -0.417619
			-0.381358 -0.600157  0.703120
			 0.789142  0.571649 -0.224662
			 0.520852 -0.317715 -0.792320
			 0.350711 -0.696048 -0.626513
			 0.381529 -0.698570 -0.605340
			 0.550488 -0.485879 -0.678885
			 0.541065 -0.361800 -0.759177
			 0.452473 -0.289847 -0.843360
			 0.315718 -0.151115 -0.936742
			 0.206899 -0.009701 -0.978314
			 0.407608 -0.258893 -0.875689
			 0.610165 -0.671017 -0.421230
			 0.052047  0.851623 -0.521565
			 0.107614  0.873660 -0.474486
			 0.074853  0.991297 -0.108290
			 0.374227  0.841757 -0.389099
			 0.068963  0.982238  0.174506
			-0.145304  0.828887  0.540216
			-0.293595  0.552691  0.779958
			-0.012539  0.513881  0.857770
			 0.107561  0.440921  0.891078
			 0.161618  0.550111  0.819303
			 0.232405  0.804876 -0.546043
			 0.405663  0.770137 -0.492267
			 0.514551  0.514574 -0.685894
			-0.151077 -0.368644  0.917212
			-0.498315  0.026205  0.866600
			-0.719463  0.424978  0.549333
			-0.772538  0.536868  0.339054
			-0.769763  0.439707  0.462734
			-0.752857  0.359184  0.551537
			-0.724903  0.351522  0.592409
			-0.653032  0.206320  0.728685
			-0.647958  0.106289  0.754224
			-0.567173 -0.131911  0.812966
			-0.440264 -0.408030  0.799800
			-0.335582 -0.518827  0.786259
			-0.033593 -0.178933  0.983288
			 0.454232 -0.812107 -0.366272
			 0.461053 -0.861432  0.212990
			 0.508120  0.594999  0.622728
			 0.519046 -0.824606 -0.224982
			 0.693298  0.690997  0.204599
			 0.877129 -0.474098  0.076655
			 0.343697 -0.748817  0.566697
			 0.991788  0.090801 -0.090069
			 0.491485  0.386750 -0.780299
			 0.452876  0.303600 -0.838290
			 0.490427  0.311081 -0.814070
			-0.798615 -0.191762  0.570475
			-0.679871  0.527911  0.509004
			-0.032559  0.900521 -0.433591
			 0.323263  0.075252 -0.943313
			-0.363245 -0.763146  0.534473
			 0.891030  0.415724 -0.182315
			 0.401887 -0.391409 -0.827820
			 0.204772 -0.741896 -0.638482
			 0.320800 -0.724600 -0.609952
			 0.486022 -0.497852 -0.718280
			 0.484824 -0.352536 -0.800415
			 0.360033 -0.277466 -0.890724
			 0.239715 -0.168706 -0.956073
			 0.212259 -0.099234 -0.972162
			 0.426067 -0.534872 -0.729644
			 0.527392 -0.760462 -0.378888
			 0.509633  0.680370 -0.526660
			 0.571925  0.589518 -0.570413
			 0.283820  0.957312 -0.054773
			 0.367333  0.897239 -0.245008
			-0.017369  0.914525  0.404157
			-0.273777  0.705498  0.653696
			 0.085679  0.762886  0.640831
			 0.881421  0.348303 -0.319035
			 0.827639  0.321378 -0.460141
			 0.539548  0.548450 -0.638819
			 0.507594  0.575752 -0.640982
			 0.415545  0.580242 -0.700458
			 0.061235 -0.503988  0.861537
			-0.503351 -0.083125  0.860074
			-0.769853  0.298976  0.563862
			-0.832397  0.475695  0.284306
			-0.839115  0.464122  0.283685
			-0.814499  0.388977  0.430452
			-0.796336  0.412403  0.442462
			-0.779424  0.275518  0.562661
			-0.715996  0.010577  0.698024
			-0.712624 -0.041028  0.700345
			-0.654760 -0.217263  0.723938
			-0.551022 -0.269734  0.789695
			-0.343291 -0.072102  0.936457
			 0.106979  0.787943  0.606384
			 0.485930 -0.772851 -0.408135
			 0.390495 -0.877210  0.279313
			 0.392073 -0.870612 -0.297175
			 0.116269  0.983795  0.136485
			-0.138240  0.988843  0.055485
			 0.524117  0.851509 -0.015324
			 0.708384 -0.624560 -0.328811
			 0.689481  0.063258 -0.721536
			 0.410387 -0.888873  0.203686
			 0.632567  0.261545 -0.729009
			 0.745825  0.527975 -0.406186
			 0.626392  0.392269 -0.673615
			 0.484988  0.613179 -0.623537
			 0.542248 -0.247861 -0.802828
			-0.806872 -0.238031  0.540647
			-0.641682  0.626518  0.442402
			-0.115487  0.956230 -0.268863
			 0.175815  0.088370 -0.980449
			 0.360208 -0.511247 -0.780306
			-0.016422 -0.954756  0.296936
			 0.285325 -0.487210 -0.825358
			 0.191133 -0.786638 -0.587085
			 0.260625 -0.752776 -0.604485
			 0.371901 -0.549359 -0.748261
			 0.343815 -0.381073 -0.858239
			 0.214961 -0.299917 -0.929431
			 0.146486 -0.234904 -0.960917
			 0.228303 -0.380268 -0.896256
			 0.193784 -0.813077 -0.548956
			 0.248802 -0.925690 -0.284948
			 0.431583  0.879433 -0.200834
			 0.391390  0.885314 -0.251065
			 0.009227  0.972586  0.232360
			 0.044036  0.971452  0.233114
			-0.246948  0.776352  0.579909
			-0.081157  0.781135  0.619066
			 0.829408  0.419440 -0.368989
			 0.372483 -0.595293 -0.711957
			 0.307850  0.884896 -0.349552
			 0.255889  0.889809 -0.377837
			 0.195902  0.903757 -0.380586
			-0.031828 -0.693449  0.719802
			-0.362573 -0.295478  0.883874
			-0.720626  0.174417  0.671027
			-0.792368  0.416944  0.445322
			-0.872896  0.368823  0.319410
			-0.900304  0.369497  0.230053
			-0.886444  0.389971  0.249278
			-0.911389  0.254683  0.323275
			-0.888683  0.069586  0.453212
			-0.848666 -0.012251  0.528787
			-0.846649  0.085452  0.525246
			-0.780317  0.168294  0.602314
			-0.623046  0.422712  0.658124
			-0.306728  0.778770  0.547206
			-0.169117  0.964295  0.203800
			 0.261504 -0.963006 -0.065074
			 0.343200 -0.867534  0.359999
			-0.482549  0.818987  0.310496
			-0.419837  0.905797  0.057175
			-0.550899  0.810653  0.198371
			 0.102571  0.994079  0.035861
			 0.510349 -0.803066 -0.307617
			 0.507397 -0.861180 -0.030284
			 0.498654  0.766999 -0.403803
			 0.055781  0.944835 -0.322763
			-0.448926 -0.511593  0.732624
			-0.593368  0.639411  0.488945
			-0.198163  0.953722 -0.226154
			-0.061546  0.157556 -0.985590
			 0.148632 -0.648067 -0.746939
			 0.314091 -0.913258 -0.259436
			 0.372876 -0.899432  0.228001
			 0.181030 -0.811231 -0.555997
			 0.239892 -0.760639 -0.603225
			 0.291518 -0.551745 -0.781406
			 0.198942 -0.385026 -0.901208
			 0.109630 -0.322375 -0.940242
			 0.118682 -0.350484 -0.929019
			 0.141264 -0.617939 -0.773432
			 0.085792 -0.862839 -0.498146
			 0.116088 -0.975334 -0.187744
			 0.032902  0.949219  0.312891
			-0.023917  0.979121  0.201865
			-0.207166  0.851002  0.482574
			-0.133766  0.871878  0.471100
			 0.089715  0.806812  0.583958
			 0.916859  0.390653 -0.082216
			 0.408606 -0.654186 -0.636460
			-0.061202  0.993881  0.091952
			-0.146888  0.985824  0.081092
			-0.363849  0.929893 -0.053971
			-0.017784 -0.817376  0.575830
			-0.300488 -0.313209  0.900892
			-0.052363 -0.588284  0.806957
			-0.644218  0.133721  0.753061
			-0.747010  0.290563  0.597954
			-0.722277  0.478447  0.499404
			-0.721035  0.490021  0.489886
			-0.756414  0.440001  0.483980
			-0.716313  0.489654  0.497127
			-0.661746  0.533752  0.526498
			-0.655003  0.603640  0.454521
			-0.561159  0.727563  0.394656
			-0.652630  0.704533  0.278762
			 0.040841 -0.975438  0.216454
			 0.331174 -0.652830  0.681276
			-0.582716  0.786487  0.204646
			-0.627896  0.761681  0.159962
			-0.555624  0.806226  0.203179
			-0.381872  0.915466  0.126871
			 0.460756 -0.887086  0.027966
			-0.529789  0.848089  0.008260
			 0.034410 -0.543501  0.838703
			-0.359655  0.587684  0.724759
			-0.259852  0.911992 -0.317408
			-0.207930  0.074603 -0.975295
			-0.016436 -0.754130 -0.656520
			 0.138593 -0.973021 -0.184452
			 0.273243 -0.951343  0.142423
			 0.466124 -0.835153  0.291971
			 0.185152 -0.827517 -0.530033
			 0.181298 -0.752971 -0.632586
			 0.123214 -0.560415 -0.818995
			 0.064419 -0.423856 -0.903436
			-0.037133 -0.373086 -0.927053
			 0.058925 -0.489636 -0.869934
			 0.126208 -0.662556 -0.738303
			 0.134280 -0.862140 -0.488553
			-0.010084 -0.979045 -0.203394
			-0.106036  0.907993  0.405346
			-0.205182  0.909216  0.362252
			 0.473648  0.802771  0.362237
			 0.316361  0.942687  0.106099
			 0.985828  0.005902 -0.167656
			 0.481685 -0.687877 -0.542960
			-0.339685  0.907247  0.248025
			-0.500329  0.858010  0.116143
			-0.475566  0.875254  0.088135
			 0.270343 -0.962459  0.024228
			 0.487963 -0.224521  0.843494
			 0.295584 -0.595201  0.747239
			 0.292817 -0.104167  0.950478
			 0.276282  0.056083  0.959439
			 0.298299  0.244831  0.922538
			 0.196294  0.415945  0.887952
			 0.052911  0.527471  0.847924
			 0.241324  0.360857  0.900858
			-0.216798  0.660885  0.718491
			 0.290981  0.473277  0.831468
			-0.043679  0.505784  0.861554
			-0.330500  0.343115  0.879228
			-0.237889  0.192541  0.952017
			 0.484381 -0.593028  0.643189
			 0.210946  0.688430  0.693950
			 0.235380  0.529392  0.815071
			-0.327859  0.892262  0.310447
			-0.524937  0.846916  0.084697
			-0.357670  0.884253  0.300282
			-0.128017  0.921168  0.367507
			-0.210275  0.975234  0.068583
			 0.184869 -0.536686  0.823281
			-0.239561  0.511550  0.825183
			-0.103931  0.992261 -0.067944
			 0.006358  0.461695 -0.887016
			 0.115696 -0.803231 -0.584324
			 0.326279 -0.943422  0.059137
			 0.167875 -0.938915  0.300426
			 0.343659 -0.842743  0.414346
			 0.151353 -0.817350 -0.555905
			 0.034653 -0.721303 -0.691752
			-0.009888 -0.602994 -0.797685
			-0.040499 -0.453251 -0.890462
			 0.033836 -0.415129 -0.909133
			 0.130086 -0.528599 -0.838845
			 0.171317 -0.693294 -0.699996
			 0.355956 -0.878045 -0.319895
			-0.121739  0.987996  0.095093
			-0.391745  0.892835  0.222221
			 0.814447 -0.095888 -0.572260
			-0.067454  0.626803 -0.776252
			 0.356361 -0.722624 -0.592302
			-0.507289  0.846387  0.162133
			-0.490652  0.850364  0.190110
			-0.002585  0.961183  0.275899
			 0.819430 -0.328410  0.469767
			 0.851928 -0.436713  0.288962
			 0.958812 -0.283422 -0.018747
			 0.886483 -0.462521  0.014917
			 0.972480 -0.047229  0.228151
			 0.988344  0.103630  0.111524
			 0.990988  0.091891  0.097459
			 0.909394 -0.245143  0.336017
			 0.869600 -0.317328  0.378284
			 0.862848 -0.213292  0.458258
			 0.372135  0.546937  0.749917
			 0.037573  0.972267  0.230836
			 0.163054  0.887474  0.431048
			 0.425372  0.643762  0.636104
			 0.634579  0.763011  0.122980
			 0.027388  0.645789  0.763025
			 0.301986 -0.626467  0.718570
			 0.107865  0.987065 -0.118609
			 0.561138  0.666006 -0.491488
			 0.441557 -0.668871 -0.598029
			 0.361788 -0.926758  0.101137
			 0.232478 -0.855591  0.462513
			 0.070593 -0.747713 -0.660259
			-0.056140 -0.696149 -0.715699
			-0.082248 -0.597885 -0.797351
			 0.115802 -0.430205 -0.895273
			 0.181996 -0.353043 -0.917735
			 0.211122 -0.482254 -0.850211
			 0.468515 -0.735658 -0.489185
			-0.621462  0.733629 -0.274908
			-0.585951  0.792642  0.168461
			 0.025151 -0.665402 -0.746061
			-0.397248 -0.236956 -0.886593
			-0.369331  0.820833  0.435693
			-0.656211  0.637800  0.403236
			 0.025579  0.835151  0.549426
			 0.520761  0.485439  0.702252
			 0.463697 -0.329393 -0.822487
			 0.364175 -0.550045 -0.751550
			 0.614684 -0.084563 -0.784228
			 0.659176  0.085370 -0.747127
			 0.631732 -0.207369 -0.746936
			 0.733762 -0.429688 -0.526272
			 0.858060 -0.300760 -0.416265
			 0.870966  0.147848  0.468571
			 0.468644  0.743696  0.476748
			 0.532240  0.651808  0.540247
			 0.877865  0.391112  0.276377
			 0.956309  0.042702 -0.289222
			 0.942616 -0.266443 -0.201206
			 0.236673  0.476604  0.846661
			 0.217144  0.847217  0.484842
			 0.266939 -0.236529  0.934236
			 0.603332  0.732571  0.315167
			 0.972420 -0.173433  0.155950
			 0.519192 -0.643379  0.562586
			 0.207766 -0.905518  0.369959
			-0.124360 -0.724148 -0.678339
			-0.092161 -0.697241 -0.710888
			 0.141432 -0.572884 -0.807342
			 0.237927 -0.384351 -0.892000
			 0.206915 -0.315753 -0.926006
			-0.873848  0.459587 -0.158651
			-0.517852 -0.023508 -0.855147
			 0.053410 -0.726819 -0.684749
			-0.141621 -0.761561 -0.632431
			 0.020901 -0.494944 -0.868673
			-0.212049  0.811765  0.544126
			-0.396717  0.890715  0.221905
			-0.591399  0.741885 -0.315998
			 0.049593  0.679150  0.732322
			 0.262332  0.109103  0.958790
			 0.629900 -0.438651  0.640945
			 0.227368 -0.257327 -0.939195
			 0.364167 -0.120670 -0.923483
			 0.549281 -0.570513 -0.610578
			 0.451322 -0.439292 -0.776744
			 0.748033 -0.496803 -0.440038
			 0.667626 -0.706255 -0.235543
			 0.422669 -0.883974  0.199851
			 0.255051 -0.434427  0.863841
			 0.321741  0.036667  0.946118
			 0.665018  0.505346  0.549888
			 0.439003 -0.822876  0.360765
			 0.204102 -0.683539 -0.700797
			 0.312741 -0.440377 -0.841582
			-0.365043  0.096211 -0.926006
			-0.062420 -0.456581 -0.887490
			 0.306762 -0.856166 -0.415785
			 0.236077 -0.823411 -0.516006
			 0.289930 -0.887995 -0.356938
			-0.137650 -0.924757 -0.354792
			 0.004059 -0.985031 -0.172327
			 0.342722  0.935144  0.089705
			 0.114541  0.961823 -0.248550
			 0.465130  0.687315 -0.557900
			 0.196407  0.497333 -0.845035
			 0.541738  0.775378  0.324513
			 0.221137 -0.698354  0.680735
			 0.523483 -0.075489  0.848685
			 0.400584 -0.591079 -0.700113
			 0.542708 -0.753673 -0.370737
			 0.410515 -0.774942 -0.480565
			 0.011187 -0.871642  0.490016
			 0.252303 -0.122973 -0.959802
			 0.070998 -0.880365 -0.468952
			 0.009868 -0.867827  0.496768
			 0.512709  0.857171 -0.048866
			 0.502044  0.808792 -0.306280
			 0.437346  0.697003 -0.568256
			 0.363438  0.288944 -0.885677
			 0.158046 -0.756360  0.634776
			 0.098169 -0.355543 -0.929490
			 0.361204  0.753392  0.549483
			-0.223797 -0.120894  0.967109
			-0.300992 -0.870452 -0.389510
			-0.486530 -0.767404  0.417587
			-0.482885 -0.461618  0.744131
			 0.439663  0.892806 -0.097946
			 0.497318  0.747130 -0.440990
			 0.529587  0.647072 -0.548485
			 0.480375  0.406428 -0.777210
			 0.141355 -0.367015 -0.919412
			-0.320381 -0.869818 -0.375196
			 0.183106  0.805687  0.563330
			-0.420098  0.174071  0.890627
			-0.594502 -0.704248  0.388074
			-0.628410 -0.302649  0.716592
			 0.509958  0.856802  0.076377
			 0.534335  0.765900 -0.357609
			 0.494681  0.628148 -0.600600
			 0.401369  0.355956 -0.843919
			 0.011193 -0.429283 -0.903101
			-0.317494 -0.892246 -0.321084
			-0.553696 -0.785716  0.275811
			 0.324687  0.759871  0.563182
			-0.176295  0.133578  0.975232
			-0.513003 -0.458440  0.725714
			 0.737862  0.631140  0.239212
			 0.787972  0.602821 -0.125324
			 0.725873  0.517218 -0.453424
			 0.629316  0.134630 -0.765400
			 0.206939 -0.678171 -0.705167
			-0.327374 -0.929504 -0.169846
			-0.400342 -0.897320  0.185858
			-0.429237 -0.592492  0.681695
			 0.599485  0.508159  0.618379
			 0.171536 -0.043714  0.984208
			 0.926676  0.254866  0.276251
			 0.982069  0.187640  0.018205
			 0.947674  0.228484 -0.222954
			 0.901569 -0.127010 -0.413572
			 0.583269 -0.700521 -0.411178
			-0.008215 -0.998885 -0.046478
			-0.198480 -0.946997  0.252592
			-0.174621 -0.737945  0.651878
			 0.413798 -0.290963  0.862619
			 0.675815  0.289531  0.677825
			 0.921458 -0.350443  0.167643
			 0.943218 -0.324515 -0.070915
			 0.597268 -0.790176 -0.137449
			 0.413273 -0.845792  0.337402
		</DataArray>
	</PointData>
	<Points>
		<DataArray type="Float32" NumberOfComponents="3" format="ascii">
			-0.106425 -0.122873 -0.086975
			-0.106720 -0.119373 -0.088935
			-0.107017 -0.115874 -0.090894
			-0.106905 -0.124668 -0.076174
			-0.105456 -0.125076 -0.075251
			-0.107837 -0.118482 -0.078313
			-0.104100 -0.116375 -0.091300
			-0.105103 -0.121324 -0.088579
			-0.107723 -0.111796 -0.083491
			-0.105833 -0.103064 -0.087601
			-0.104008 -0.110001 -0.094237
			-0.105932 -0.107564 -0.095219
			-0.102043 -0.113582 -0.062474
			-0.102806 -0.110057 -0.064479
			-0.099641 -0.114932 -0.062157
			-0.102682 -0.122425 -0.076616
			-0.103577 -0.104314 -0.067895
			-0.100549 -0.118690 -0.079775
			-0.104054 -0.113188 -0.092769
			-0.101362 -0.094945 -0.072090
			-0.098294 -0.091398 -0.074619
			-0.103849 -0.097686 -0.091046
			-0.099958 -0.106700 -0.085371
			-0.100000 -0.113627 -0.083390
			-0.103767 -0.102724 -0.097404
			-0.104942 -0.099191 -0.097778
			-0.100050 -0.104704 -0.058673
			-0.100651 -0.102648 -0.058956
			-0.101565 -0.095710 -0.062998
			-0.099253 -0.111826 -0.064520
			-0.097773 -0.106027 -0.058580
			-0.099867 -0.090170 -0.066287
			-0.098183 -0.106807 -0.066417
			-0.096359 -0.086150 -0.068131
			-0.096836 -0.086112 -0.076109
			-0.094478 -0.081774 -0.068811
			-0.102031 -0.091124 -0.091987
			-0.095058 -0.096469 -0.070381
			-0.096582 -0.102579 -0.067822
			-0.099577 -0.098225 -0.087898
			-0.101659 -0.082092 -0.102955
			-0.104157 -0.093114 -0.098825
			-0.101060 -0.074421 -0.103136
			-0.096036 -0.085267 -0.050290
			-0.096806 -0.083388 -0.051080
			-0.096437 -0.081213 -0.052981
			-0.093193 -0.077479 -0.055005
			-0.096239 -0.103203 -0.058709
			-0.092155 -0.087432 -0.050558
			-0.090489 -0.074769 -0.057746
			-0.094933 -0.099125 -0.060846
			-0.089187 -0.072346 -0.058671
			-0.094199 -0.068501 -0.079765
			-0.090852 -0.063700 -0.071200
			-0.085062 -0.057494 -0.062572
			-0.099458 -0.072074 -0.094007
			-0.094809 -0.088888 -0.072663
			-0.092571 -0.091090 -0.063866
			-0.093802 -0.095982 -0.061592
			-0.097483 -0.078653 -0.092436
			-0.095237 -0.056267 -0.105782
			-0.094133 -0.052195 -0.097600
			-0.096243 -0.054780 -0.104232
			-0.089065 -0.074965 -0.040892
			-0.089780 -0.072880 -0.041404
			-0.089019 -0.071328 -0.043572
			-0.087226 -0.069150 -0.046196
			-0.084147 -0.066798 -0.050302
			-0.090062 -0.087771 -0.051375
			-0.087691 -0.076063 -0.042579
			-0.082896 -0.065018 -0.051851
			-0.088457 -0.086971 -0.052939
			-0.080288 -0.053886 -0.056303
			-0.089617 -0.048977 -0.082735
			-0.086139 -0.045984 -0.075327
			-0.081181 -0.044105 -0.066253
			-0.076942 -0.043166 -0.059482
			-0.092635 -0.073108 -0.076885
			-0.091705 -0.082102 -0.066853
			-0.087547 -0.083014 -0.056029
			-0.088067 -0.085508 -0.054092
			-0.090654 -0.054040 -0.095345
			-0.087999 -0.029233 -0.102063
			-0.081660 -0.028413 -0.089568
			-0.091480 -0.043169 -0.097943
			-0.088828 -0.034143 -0.098286
			-0.091820 -0.040188 -0.102640
			-0.089431 -0.031814 -0.102791
			-0.079767 -0.067454 -0.035009
			-0.080535 -0.065575 -0.035799
			-0.079676 -0.063165 -0.037071
			-0.077685 -0.060773 -0.040338
			-0.074937 -0.060117 -0.043351
			-0.073803 -0.058170 -0.045669
			-0.085125 -0.074825 -0.041736
			-0.078217 -0.068501 -0.035650
			-0.073472 -0.050210 -0.049364
			-0.081850 -0.075855 -0.044952