<?xml version="1.0"?>
<VTKFile type="PolyData" version="0.1" byte_order="LittleEndian" compressor="vtkZLibDataCompressor">
	<PolyData>
		<Piece NumberOfPoints="1851" NumberOfVerts="0" NumberOfLines="0" NumberOfStrips="0" NumberOfPolys="3698">
		<PointData Normals="Normals">
		<DataArray type="Float32" Name="Normals" NumberOfComponents="3" format="ascii">
			 0.115465 -0.046001  0.992246
			 0.239103  0.145832  0.959981
			 0.001466  0.052656  0.998612
			-0.098968 -0.139066  0.985325
			 0.365842  0.126181  0.922083
			-0.158409 -0.206855  0.965462
			-0.144202 -0.197662  0.969606
			 0.223447  0.050104  0.973428
			 0.016766 -0.130562  0.991298
			 0.054858  0.226148  0.972547
			 0.349324  0.295925  0.889045
			 0.157740  0.315012  0.935887
			-0.307219  0.140876  0.941154
			-0.309774 -0.038770  0.950019
			-0.365642 -0.221275  0.904071
			 0.448013  0.272446  0.851503
			 0.389112  0.094196  0.916362
			 0.368734  0.174841  0.912944
			 0.436304  0.237477  0.867896
			-0.427233 -0.284379  0.858255
			-0.388603 -0.317769  0.864876
			-0.202164 -0.228992  0.952204
			 0.025249 -0.062607  0.997719
			 0.248002  0.129845  0.960018
			 0.320478  0.164581  0.932849
			-0.086254  0.289610  0.953250
			 0.503321  0.305587  0.808260
			 0.407657  0.371630  0.834090
			 0.356017  0.405768  0.841786
			 0.236066  0.363617  0.901141
			 0.074002  0.344134  0.936000
			-0.632913  0.030782  0.773611
			-0.534603  0.001548  0.845102
			-0.566874  0.099981  0.817715
			-0.318676  0.214235  0.923336
			-0.557949 -0.116542  0.821652
			-0.621637 -0.298762  0.724092
			 0.537453  0.309115  0.784597
			 0.257526  0.241317  0.935653
			 0.456342  0.284954  0.842943
			 0.280702  0.283019  0.917119
			 0.550853  0.277814  0.787007
			 0.416267  0.294096  0.860366
			 0.452007  0.277730  0.847676
			-0.610653 -0.299041  0.733265
			-0.602270 -0.325860  0.728756
			-0.439163 -0.319192  0.839793
			-0.223561 -0.252751  0.941349
			-0.014734 -0.080151  0.996674
			 0.092728  0.111689  0.989407
			-0.178017  0.309728  0.934012
			 0.497351  0.296055  0.815472
			 0.405309  0.286946  0.867978
			 0.412844  0.494778  0.764692
			 0.452155  0.305205  0.838097
			 0.481881  0.405780  0.776617
			 0.312951  0.489283  0.814042
			 0.233952  0.396432  0.887754
			 0.033121  0.445014  0.894911
			-0.779465 -0.135943  0.611517
			-0.817031 -0.043188  0.574974
			-0.729834  0.045525  0.682107
			-0.440755  0.219304  0.870426
			-0.763507 -0.290421  0.576812
			 0.201962  0.224003  0.953433
			 0.414476  0.254385  0.873784
			 0.456529  0.293270  0.839985
			 0.403475  0.291084  0.867455
			 0.461622  0.312993  0.830025
			 0.554891  0.272049  0.786184
			 0.435709  0.280502  0.855264
			 0.475843  0.304462  0.825152
			-0.596576 -0.294121  0.746719
			-0.819626 -0.297818  0.489405
			-0.466494 -0.362338  0.806905
			-0.057744 -0.050483  0.997054
			-0.297798 -0.276073  0.913838
			-0.419751 -0.394539  0.817404
			-0.093458 -0.184694  0.978342
			 0.012897  0.061364  0.998032
			 0.042345 -0.084929  0.995487
			 0.123658 -0.009955  0.992275
			-0.550356  0.195958  0.811609
			-0.435386  0.284259  0.854187
			-0.226912  0.360260  0.904833
			 0.319672  0.568974  0.757680
			 0.402612  0.585173  0.703901
			 0.476326  0.452025  0.754179
			 0.501829  0.484882  0.716280
			 0.510202  0.346071  0.787355
			 0.595410  0.409391  0.691292
			 0.205648  0.555328  0.805804
			-0.239283  0.371710  0.896981
			-0.067862  0.544322  0.836127
			 0.104290  0.548320  0.829740
			-0.260883  0.400500  0.878373
			-0.901470 -0.216935  0.374553
			-0.936027 -0.168664  0.308878
			-0.916781 -0.083940  0.390470
			-0.824416  0.018459  0.565684
			-0.620684  0.140625  0.771347
			-0.735265  0.100590  0.670273
			-0.878206 -0.295920  0.375747
			 0.238568  0.015181  0.971007
			 0.316212  0.083797  0.944980
			 0.579805  0.158152  0.799259
			 0.432087 -0.055890  0.900098
			 0.520185 -0.011672  0.853974
			 0.571523  0.157546  0.805320
			 0.618485  0.148826  0.771574
			 0.476312  0.309867  0.822867
			 0.485680  0.321962  0.812684
			 0.482003  0.330061  0.811623
			 0.648162  0.256189  0.717115
			-0.754548 -0.361992  0.547374
			-0.584952 -0.411579  0.698881
			-0.948434 -0.265382  0.173338
			-0.906767 -0.344164  0.243568
			-0.858811 -0.408654  0.308944
			-0.525857 -0.417125  0.741270
			-0.394963 -0.376578  0.837970
			-0.282198 -0.290187  0.914416
			-0.625099 -0.488513  0.608775
			-0.516956 -0.570043  0.638598
			-0.412436 -0.503530  0.759180
			-0.004120 -0.304098  0.952632
			-0.218497 -0.395989  0.891881
			 0.065318 -0.254062  0.964980
			 0.266848 -0.173269  0.948035
			-0.819127  0.013554  0.573452
			-0.731419  0.131758  0.669078
			-0.339470  0.377518  0.861534
			-0.595650  0.312891  0.739798
			 0.327568  0.606181  0.724737
			 0.265635  0.604370  0.751116
			 0.367714  0.645966  0.668965
			 0.481466  0.600468  0.638459
			 0.566679  0.481944  0.668285
			 0.671026  0.466209  0.576519
			 0.540980  0.398772  0.740488
			 0.569585  0.405100  0.715169
			 0.520108  0.357730  0.775575
			 0.629446  0.376338  0.679829
			 0.659737  0.395088  0.639260
			 0.061153  0.592441  0.803289
			 0.178492  0.626039  0.759089
			-0.354318  0.473464  0.806406
			-0.188853  0.586426  0.787679
			-0.495217  0.360311  0.790529
			-0.974626 -0.206182  0.087144
			-0.970818 -0.233346  0.055337
			-0.954571 -0.190152  0.229425
			-0.925033 -0.103940  0.365392
			-0.973761 -0.182595  0.135829
			 0.671261 -0.088334  0.735939
			 0.656956  0.065404  0.751087
			 0.497904 -0.204718  0.842723
			 0.377880 -0.361025  0.852565
			 0.640803 -0.137725  0.755250
			 0.867016  0.188593  0.461212
			 0.631173  0.286654  0.720729
			 0.872480  0.206804  0.442730
			 0.573604  0.269199  0.773635
			-0.771467 -0.474407  0.424001
			-0.825307 -0.462384  0.324144
			-0.674730 -0.483822  0.557365
			-0.923363 -0.369126 -0.105577
			-0.928617 -0.370697 -0.015930
			-0.889680 -0.454418  0.044417
			-0.861336 -0.502939  0.071778
			-0.431195 -0.488770  0.758403
			-0.354158 -0.414536  0.838291
			-0.693154 -0.651015  0.309383
			-0.742162 -0.604554  0.289327
			-0.588864 -0.692368  0.416973
			-0.529090 -0.645292  0.551055
			-0.029677 -0.450086  0.892492
			-0.391206 -0.543955  0.742342
			-0.219992 -0.472086  0.853662
			 0.181140 -0.383126  0.905761
			-0.882064 -0.031213  0.470095
			-0.748914  0.166069  0.641521
			 0.237649  0.679124  0.694488
			 0.271938  0.708969  0.650702
			 0.392648  0.714447  0.579131
			 0.328661  0.770030  0.546842
			 0.557195  0.516957  0.649838
			 0.673871  0.475883  0.565183
			 0.484616  0.682549  0.547059
			 0.933429  0.229057  0.276122
			 0.700293  0.408786  0.585222
			 0.932306  0.205494  0.297619
			 0.564017  0.369168  0.738647
			 0.608366  0.354757  0.709956
			 0.580431  0.367925  0.726451
			 0.526627  0.447596  0.722719
			 0.629353  0.308294  0.713351
			-0.179939  0.634941  0.751314
			 0.071437  0.691511  0.718825
			 0.133758  0.709461  0.691935
			-0.532529  0.319093  0.783960
			-0.464588  0.541415  0.700734
			-0.596772  0.389048  0.701787
			-0.963285 -0.267258 -0.025578
			-0.985103 -0.171919  0.004073
			-0.970840 -0.239546  0.009355
			-0.937476 -0.327380 -0.118160
			-0.957031 -0.167903  0.236432
			-0.929802 -0.362592  0.063213
			-0.965330 -0.232876  0.117926
			-0.940637 -0.261786  0.216032
			 0.650508 -0.291617  0.701284
			 0.701436 -0.196490  0.685112
			 0.695642 -0.089804  0.712754
			 0.664594  0.113243  0.738573
			 0.718323 -0.002832  0.695704
			 0.532869 -0.373433  0.759341
			 0.512614 -0.499172  0.698609
			 0.314861 -0.475811  0.821259
			 0.972675  0.083798  0.216522
			 0.529159  0.327985  0.782570
			 0.605846  0.264294  0.750400
			-0.785605 -0.569210  0.242537
			-0.822282 -0.551728  0.139460
			-0.857836 -0.479208 -0.185681
			-0.796979 -0.471019 -0.378108
			-0.790359 -0.585076 -0.181711
			-0.564664 -0.620783  0.543859
			-0.563560 -0.645092  0.516000
			-0.628779 -0.721407  0.290189
			-0.744520 -0.667552 -0.007993
			-0.690125 -0.722827  0.035326
			-0.642156 -0.726277  0.245270
			-0.359284 -0.521004  0.774254
			 0.123750 -0.588489  0.798978
			-0.232371 -0.591356  0.772205
			 0.146577 -0.459199  0.876157
			-0.473054 -0.613413  0.632412
			-0.959099 -0.104922  0.262907
			-0.864376  0.003412  0.502834
			-0.699538  0.255221  0.667465
			-0.870588  0.144670  0.470263
			 0.075358  0.802654  0.591665
			 0.237174  0.802234  0.547877
			 0.141187  0.817766  0.557965
			 0.359298  0.824774  0.436639
			 0.295615  0.838997  0.456833
			 0.323509  0.850231  0.415270
			 0.888130  0.273512  0.369346
			 0.595301  0.507575  0.622884
			 0.442529  0.736467  0.511649
			 0.542732  0.626254  0.559685
			 0.612912  0.464008  0.639559
			 0.635735  0.378627  0.672668
			 0.611638  0.384327  0.691514
			 0.556241  0.489158  0.671804
			 0.505444  0.301706  0.808393
			 0.637480  0.387949  0.665669
			 0.485098  0.550272  0.679618
			 0.535917  0.513543  0.670125
			-0.532191  0.485425  0.693639
			-0.172433  0.682754  0.710010
			-0.036927  0.752941  0.657051
			-0.719589  0.364822  0.590844
			-0.875088 -0.429859 -0.222356
			-0.891500 -0.400793  0.211171
			-0.836648 -0.546589 -0.035497
			-0.797215 -0.559785 -0.226031
			-0.967701 -0.178029  0.178495
			-0.948915 -0.286174  0.132909
			-0.979890 -0.136288  0.145742
			 0.674392 -0.396450  0.622915
			 0.613803 -0.439903  0.655539
			 0.682919 -0.392473  0.616106
			 0.729093 -0.288491  0.620642
			 0.685608  0.045441  0.726551
			 0.653478  0.164973  0.738750
			 0.719481 -0.080343  0.689850
			 0.535702 -0.479129  0.695312
			 0.614352 -0.500699  0.609813
			 0.399352 -0.455203  0.795807
			 0.572292  0.221201  0.789654
			 0.728232  0.278220  0.626317
			 0.589125  0.376611  0.714910
			-0.730745 -0.575673 -0.366895
			-0.639659 -0.555934 -0.530824
			-0.734590 -0.519100 -0.436935
			-0.651729 -0.699856 -0.292318
			-0.654070 -0.713948  0.249940
			-0.603708 -0.592095  0.533817
			-0.723792 -0.680935  0.111588
			-0.722450 -0.648441  0.239979
			-0.656426 -0.752218 -0.057207
			-0.373285 -0.683432  0.627359
			 0.788207 -0.443988  0.426149
			 0.364704 -0.645240  0.671309
			-0.069116 -0.576996  0.813818
			 0.172756 -0.534315  0.827443
			 0.325536 -0.459838  0.826181
			-0.968996  0.032281  0.244958
			-0.822144  0.263250  0.504757
			-0.229605  0.762430  0.604964
			-0.178260  0.827690  0.532121
			-0.006596  0.868449  0.495735
			-0.075503  0.880479  0.468034
			 0.192650  0.869622  0.454581
			 0.009435  0.872832  0.487930
			 0.274919  0.922253  0.271788
			 0.369802  0.804346  0.465053
			 0.287620  0.932656  0.217779
			 0.373739  0.860019  0.347399
			 0.254811  0.903569  0.344434
			 0.624292  0.543613  0.561021
			 0.643047  0.421814  0.639189
			 0.645736  0.492862  0.583192
			 0.542470  0.701304  0.462493
			 0.434453  0.793566  0.426032
			 0.641963  0.593176  0.485824
			 0.563231  0.478602  0.673580
			 0.628848  0.400384  0.666515
			 0.700666  0.195353  0.686225
			 0.655105  0.513239  0.554458
			 0.699256  0.438377  0.564683
			 0.929158  0.254030  0.268576
			-0.744744  0.403621  0.531457
			-0.333683  0.660370  0.672732
			-0.576899  0.576620  0.578530
			-0.277274  0.701170  0.656871
			-0.891064 -0.453016  0.027952
			-0.664096 -0.663284 -0.345008
			-0.769454 -0.623681 -0.137704
			-0.715898 -0.665450 -0.211346
			-0.649206 -0.597186 -0.471063
			-0.973751 -0.220368  0.056984
			-0.992133 -0.121935  0.028347
			-0.885255 -0.441646 -0.145852
			-0.934687 -0.341378 -0.099100
			-0.992327 -0.066822  0.104033
			 0.674458 -0.493974  0.548721
			 0.707863 -0.457894  0.537831
			 0.695458 -0.460143  0.551912
			 0.745487 -0.252426  0.616871
			 0.689388 -0.527364  0.496621
			 0.688953 -0.459364  0.560650
			 0.660999  0.047605  0.748876
			 0.513237  0.413957  0.751816
			 0.558037  0.124358  0.820445
			 0.739498 -0.262170  0.620008
			 0.705687 -0.168422  0.688215
			 0.690414  0.002767  0.723409
			 0.520691 -0.459215  0.719724
			 0.361993 -0.586055  0.724914
			 0.524208  0.512874  0.679828
			-0.610998 -0.668517 -0.423988
			-0.528430 -0.622695 -0.577072
			-0.508191 -0.618729 -0.599097
			-0.539658 -0.693169 -0.477793
			-0.659654 -0.632038 -0.406675
			-0.716715 -0.693415 -0.074125
			-0.716826 -0.642588  0.270631
			-0.785345 -0.619033 -0.005592
			-0.780306 -0.525584 -0.338944
			 0.763527 -0.559613  0.322273
			-0.566918 -0.720820  0.398775
			-0.264153 -0.727032  0.633757
			-0.561512 -0.708964  0.426701
			-0.557611 -0.757076  0.340449
			 0.067831 -0.637771  0.767234
			 0.215805 -0.613917  0.759298
			-0.969861  0.049074  0.238666
			-0.907689  0.220294  0.357171
			-0.496005  0.635110  0.592126
			-0.475978  0.739302  0.476317
			-0.254171  0.868308  0.425956
			 0.113962  0.921296  0.371788
			-0.152353  0.927734  0.340732
			 0.168924  0.967884  0.186187
			 0.174798  0.976701  0.124501
			 0.212775  0.965170  0.152231
			 0.382390  0.870668  0.309381
			 0.281631  0.957059  0.068709
			 0.199882  0.978025  0.059273
			 0.377712  0.907878  0.181907
			 0.466807  0.840505  0.275032
			 0.522136  0.790063  0.321209
			 0.098925  0.972223  0.212123
			 0.044840  0.963492  0.263957
			 0.683707  0.466518  0.561164
			 0.643149  0.391944  0.657830
			 0.606731  0.708909  0.359618
			 0.720607  0.493833  0.486677
			 0.696819  0.589608  0.408419
			 0.620152  0.502281  0.602598
			 0.542293  0.557404  0.628664
			 0.695016  0.375646  0.613060
			 0.648965  0.443670  0.618063
			 0.922747  0.263063  0.281667
			 0.867618  0.315426  0.384377
			-0.801845  0.441268  0.402898
			-0.409513  0.678412  0.609964
			-0.565438 -0.729701 -0.384469
			-0.487336 -0.722087 -0.491014
			-0.701768 -0.636138 -0.320703
			-0.599918 -0.712445 -0.364034
			-0.953074 -0.271898 -0.133123
			-0.997618 -0.016299  0.067026
			-0.995250 -0.074568 -0.062595
			-0.982436  0.048585  0.180163
			-0.975223 -0.178804 -0.130267
			-0.979759 -0.122162 -0.158586
			-0.899667 -0.356248 -0.252363
			 0.754864 -0.487310  0.438988
			 0.653351 -0.642791  0.399941
			 0.697075 -0.686823  0.205819
			 0.583645 -0.653603  0.481832
			 0.750908 -0.582619  0.310954
			 0.544232 -0.585261  0.601067
			 0.717251 -0.601797  0.351271
			 0.704047 -0.437321  0.559525
			 0.648031 -0.676656  0.349560
			 0.644530 -0.626918  0.437670
			 0.627119 -0.701734  0.338070
			 0.581882 -0.660515  0.474482
			 0.688555  0.217977  0.691648
			 0.662503  0.242974  0.708557
			 0.541917  0.295738  0.786680
			 0.539899  0.548183  0.638752
			 0.537717  0.594223  0.598130
			 0.498808  0.577107  0.646636
			 0.763445 -0.075098  0.641492
			 0.788151 -0.088461  0.609091
			 0.742859 -0.340608  0.576322
			 0.729918  0.177853  0.659991
			 0.474074 -0.525184  0.706707
			 0.104972 -0.785240  0.610229
			 0.388350 -0.710775  0.586501
			 0.147056 -0.854068  0.498942
			-0.512739 -0.571497 -0.640695
			-0.527297 -0.565894 -0.633815
			-0.514151 -0.663671 -0.543313
			-0.514816 -0.607394 -0.605010
			-0.425402 -0.724291 -0.542619
			-0.490600 -0.692134 -0.529398
			-0.556466 -0.650376 -0.517065
			-0.614021 -0.580774 -0.534491
			-0.584396 -0.648016 -0.488423
			-0.696997 -0.335486 -0.633755
			-0.745462 -0.658872  0.100863
			-0.783688 -0.568641 -0.249960
			-0.776562 -0.354747 -0.520678
			-0.012323 -0.740908  0.671493
			-0.418557 -0.789546  0.448807
			-0.553009 -0.800594  0.230715
			-0.371284 -0.831737  0.412749
			-0.611773 -0.747395  0.259105
			-0.941131  0.233571  0.244372
			-0.676456  0.533021  0.508227
			-0.725826  0.568649  0.387059
			-0.629407  0.709056  0.317941
			-0.451818  0.835595  0.312476
			-0.376120  0.879638  0.291153
			-0.366912  0.919116  0.143530
			-0.175073  0.966520  0.187585
			 0.005977  0.999269  0.037757
			 0.277503  0.958881  0.059493
			 0.160790  0.984833  0.065196
			 0.337361  0.940780 -0.033474
			 0.282316  0.958775  0.032379
			 0.758900  0.651087  0.012512
			 0.448573  0.876203  0.176213
			 0.405114  0.914258  0.003795
			 0.537220  0.808189  0.241300
			 0.603459  0.742996  0.289472
			-0.145961  0.986563  0.073403
			 0.733247  0.441162  0.517422
			 0.696255  0.646752  0.311352
			 0.735593  0.494335  0.463180
			 0.675511  0.519068  0.523692
			 0.581484  0.581783  0.568687
			-0.861710  0.345555  0.371547
			-0.472792 -0.744598 -0.471213
			-0.643688 -0.671085 -0.367846
			-0.999611  0.027869 -0.001025
			-0.948818  0.211250  0.234773
			-0.990898  0.086136  0.103445
			-0.966836 -0.183311 -0.177832
			-0.922071 -0.291408 -0.254690
			-0.967062 -0.119913 -0.224526
			-0.789987 -0.502624 -0.351127
			 0.764695 -0.576599  0.287707
			 0.591024 -0.796788  0.125779
			 0.576458 -0.757315  0.306873
			 0.537302 -0.828336 -0.158636
			 0.681100 -0.732190  0.000763
			 0.648031 -0.749637 -0.134540
			 0.436055 -0.797467  0.417017
			 0.479418 -0.839452  0.255888
			 0.714599 -0.691690  0.104465
			 0.733927 -0.671044  0.105119
			 0.745427 -0.652839  0.134685
			 0.626103 -0.777843  0.054366
			 0.566742 -0.798423  0.203285
			 0.655946 -0.527091  0.540287
			 0.475438 -0.768988  0.427337
			 0.529953 -0.765546  0.364814
			 0.464775 -0.870483  0.162000
			 0.526400 -0.794077  0.303881
			 0.616666  0.501372  0.606918
			 0.618826  0.463816  0.633979
			 0.812524  0.051748  0.580626
			 0.792650  0.168052  0.586058
			 0.771310 -0.221662  0.596613
			 0.756777  0.116435  0.643220
			 0.724710 -0.374775  0.578220
			 0.689783  0.343145  0.637535
			-0.143552 -0.868231  0.474940
			-0.014775 -0.892194  0.451411
			 0.176750 -0.913999  0.365192
			-0.179371 -0.940708  0.287915
			-0.000056 -0.963463  0.267842
			-0.551134 -0.550264 -0.627265
			-0.525382 -0.550866 -0.648475
			-0.558392 -0.585863 -0.587335
			-0.558016 -0.541258 -0.629013
			-0.526238 -0.592363 -0.610065
			-0.420965 -0.778797 -0.465042
			-0.442842 -0.785822 -0.431711
			-0.546621 -0.732719 -0.405375
			-0.652011 -0.621723 -0.433985
			-0.585422 -0.585046 -0.561251
			-0.645863 -0.505879 -0.571793
			-0.683860 -0.448901 -0.575172
			-0.693164 -0.227061 -0.684081
			-0.724666 -0.182985 -0.664360
			-0.710858 -0.702476 -0.034758
			-0.767962 -0.586507 -0.257379
			-0.744410 -0.395131 -0.538261
			-0.609489 -0.791834  0.039010
			-0.486238 -0.854232  0.184013
			-0.573399 -0.803764  0.158672
			-0.843285  0.466485  0.266951
			-0.587405  0.793957  0.156805
			-0.788746  0.601131  0.128536
			-0.878413  0.464704  0.111538
			-0.526887  0.843535 -0.104110
			-0.336904  0.940369 -0.046930
			-0.214165  0.967353 -0.135507
			-0.089780  0.990134 -0.107588
			 0.036686  0.997698 -0.057031
			 0.856707  0.515698 -0.010391
			 0.848243  0.529020 -0.024924
			 0.115506  0.989736 -0.084153
			 0.190703  0.974685 -0.116711
			 0.325551  0.940240 -0.099824
			 0.519384  0.843655  0.135965
			 0.378036  0.918558 -0.115502
			 0.466784  0.876525 -0.117543
			 0.552881  0.832606  0.033011
			 0.611559  0.762208  0.212212
			 0.705555  0.466863  0.533134
			 0.741574  0.638928  0.204545
			 0.679061  0.698965  0.224331
			 0.737499  0.569088  0.363640
			 0.650948  0.578496  0.491538
			 0.693184  0.604344  0.392765
			 0.591660  0.601574  0.536700
			-0.600090 -0.689441 -0.405664
			-0.440333 -0.807473 -0.392550
			-0.962343  0.233914  0.138492
			-0.993636  0.112629 -0.001201
			-0.958798  0.262328  0.109043
			-0.993416 -0.015427 -0.113517
			-0.973363 -0.077131 -0.215906
			-0.970964 -0.104791 -0.215052
			-0.934981 -0.227699 -0.271963
			-0.933872 -0.268228 -0.236508
			-0.914304 -0.264806 -0.306475
			-0.797223 -0.504287 -0.331859
			-0.958202 -0.079116 -0.274934
			 0.434311 -0.900406  0.025339
			 0.375491 -0.906909 -0.191108
			 0.153105 -0.838331 -0.523221
			 0.271759 -0.825205 -0.495160
			 0.478778 -0.830787 -0.283840
			 0.470007 -0.812752 -0.344278
			 0.498233 -0.837135 -0.225763
			 0.549171 -0.816286 -0.179133
			 0.309848 -0.804173 -0.507247
			 0.294446 -0.918988  0.262227
			 0.274698 -0.960422  0.046154
			 0.620182 -0.776107 -0.114162
			 0.639695 -0.765794 -0.065956
			 0.492818 -0.847883 -0.195510
			 0.495985 -0.862418 -0.101166
			 0.497679 -0.866924 -0.027525
			 0.408566 -0.912729 -0.000192
			 0.404754 -0.761293  0.506564
			 0.757516 -0.375084  0.534304
			 0.507612 -0.612626  0.605822
			 0.800361 -0.353765  0.484016
			 0.803486 -0.245304  0.542436
			 0.306838 -0.871599  0.382315
			 0.388338 -0.886880  0.250276
			 0.390641 -0.904849  0.169257
			 0.164348 -0.983900 -0.070216
			 0.821668  0.207796  0.530738
			 0.816794  0.154584  0.555834
			 0.816417  0.163485  0.553837
			 0.845145 -0.000427  0.534537
			 0.724786  0.478341  0.495858
			 0.859016 -0.137051  0.493264
			 0.073563 -0.996515  0.039332
			-0.003366 -0.999497  0.031549
			-0.525384 -0.842670 -0.117812
			-0.281114 -0.959674 -0.000673
			-0.638792 -0.521386 -0.565775
			-0.422518 -0.812097 -0.402463
			-0.507761 -0.772347 -0.381653
			-0.630920 -0.703415 -0.327335
			-0.706255 -0.622951 -0.336358
			-0.693807 -0.594995 -0.405725
			-0.708368 -0.208503 -0.674346
			-0.625673 -0.357221 -0.693488
			-0.547234 -0.486806 -0.680848
			-0.701458 -0.213170 -0.680084
			-0.668968 -0.139145 -0.730151
			-0.683025 -0.642828 -0.346770
			-0.624323 -0.646656 -0.438242
			-0.665987 -0.576874 -0.472947
			-0.557043 -0.815613 -0.156456
			-0.733359  0.674482 -0.085201
			-0.862706  0.493575 -0.110106
			-0.980056  0.194114 -0.042543
			-0.943986  0.305543 -0.124632
			-0.401254  0.895709 -0.191574
			-0.618951  0.739609 -0.264346
			-0.511261  0.799328 -0.315732
			-0.352619  0.902632 -0.246809
			-0.328941  0.891619 -0.311148
			-0.201412  0.944333 -0.260132
			-0.063641  0.973184 -0.221048
			 0.254871  0.960443 -0.112205
			 0.092101  0.970300 -0.223686
			 0.264246  0.932498 -0.246214
			 0.378753  0.916170 -0.131065
			 0.562244  0.824846 -0.059255
			 0.444222  0.873699 -0.198283
			 0.488641  0.838463 -0.241269
			 0.538138  0.812407 -0.224505
			 0.644416  0.758990  0.093069
			 0.574743  0.813892 -0.085148
			 0.754420  0.589437  0.288816
			 0.692272  0.721156  0.026348
			 0.759833  0.622497  0.187486
			 0.682478  0.730657  0.019067
			 0.697433  0.716592 -0.009139
			 0.592732  0.692707  0.410886
			 0.712199  0.626948  0.315769
			 0.667736  0.631910  0.393471
			-0.446836 -0.839602 -0.308879
			-0.557144 -0.757407 -0.340479
			-0.486854 -0.818581 -0.304793
			-0.975620  0.104250 -0.193128
			-0.962017 -0.094457 -0.256127
			-0.959328  0.006960 -0.282207
			-0.938521 -0.142921 -0.314249
			-0.945612 -0.084695 -0.314076
			-0.869377 -0.331687 -0.366288
			-0.743069 -0.575148 -0.342130
			-0.934384 -0.143080 -0.326275
			-0.934176 -0.084447 -0.346675
			-0.906759 -0.069181 -0.415936
			 0.234707 -0.957721 -0.166380
			 0.152152 -0.943917 -0.293036
			-0.138568 -0.725418 -0.674216
			-0.339890 -0.606501 -0.718771
			-0.119041 -0.866748 -0.484331
			 0.309901 -0.848469 -0.429024
			 0.016244 -0.720645 -0.693114
			 0.105199 -0.828692 -0.549730
			 0.395046 -0.844397 -0.361846
			-0.199555 -0.740782 -0.641420
			 0.081244 -0.983431 -0.162057
			 0.294568 -0.913326 -0.281185
			 0.250856 -0.874860 -0.414357
			 0.241491 -0.948024 -0.207200
			 0.151351 -0.870176  0.468921
			 0.814138 -0.349664  0.463589
			 0.552434 -0.581634  0.597092
			 0.677690 -0.369175  0.635961
			 0.294280 -0.761698  0.577249
			 0.869328 -0.195962  0.453728
			 0.843478 -0.312537  0.436881
			 0.753950 -0.339735  0.562263
			 0.878000 -0.244998  0.411208
			 0.874225 -0.188600  0.447394
			 0.138812 -0.970088  0.199149
			 0.228647 -0.968177  0.101757
			-0.199416 -0.905783 -0.373886
			-0.335342 -0.937824 -0.089620
			-0.015155 -0.999551  0.025847
			 0.780531  0.364687  0.507716
			 0.856654  0.113923  0.503156
			 0.815439  0.314734  0.485801
			 0.864020  0.081272  0.496854
			-0.120235 -0.946966 -0.297993
			-0.317044 -0.904445 -0.285417
			-0.559321 -0.779304 -0.282570
			-0.536792 -0.649871 -0.538073
			-0.461959 -0.609714 -0.644083
			-0.637179 -0.723060 -0.266811
			-0.723811 -0.643920 -0.247920
			-0.743618 -0.622439 -0.244136
			-0.704198 -0.661300 -0.258434
			-0.662438 -0.633630 -0.399612
			-0.632675 -0.306432 -0.711211
			-0.376068 -0.534663 -0.756775
			-0.468669 -0.630934 -0.618281
			-0.244670 -0.698126 -0.672872
			-0.204305 -0.694812 -0.689562
			-0.659081 -0.318146 -0.681465
			-0.554648 -0.630086 -0.543467
			-0.741301  0.602300 -0.296154
			-0.884102  0.367688 -0.288390
			-0.919499  0.258809 -0.295871
			-0.682819  0.644714 -0.343660
			-0.550765  0.762440 -0.339621
			-0.309949  0.918305 -0.246268
			-0.186657  0.933261 -0.306893
			-0.005846  0.949591 -0.313436
			 0.410333  0.885756 -0.216943
			 0.316136  0.877667 -0.360221
			 0.249300  0.856446 -0.452050
			 0.429382  0.862631 -0.267392
			 0.118660  0.913512 -0.389122
			 0.617879  0.779576 -0.102402
			 0.601517  0.797766 -0.041785
			 0.459646  0.841132 -0.284995
			 0.496620  0.803219 -0.328949
			 0.595811  0.781891 -0.183452
			 0.551367  0.770608 -0.319622
			 0.523422  0.773608 -0.357155
			 0.508254  0.787102 -0.349498
			 0.663749  0.746290 -0.049886
			 0.644527  0.761905 -0.063921
			 0.747225  0.624710  0.226701
			 0.674930  0.729410 -0.111486
			 0.723575  0.655150  0.217298
			 0.613583  0.766154 -0.191115
			 0.542604  0.825640 -0.154595
			 0.665656  0.729796  0.155884
			 0.523804  0.847990 -0.080885
			 0.558178  0.828808 -0.038901
			 0.727086  0.606676  0.321387
			 0.722280  0.532665  0.441112
			-0.396157 -0.869376 -0.295372
			-0.514488 -0.812346 -0.274585
			-0.528531 -0.819365 -0.222026
			-0.494613 -0.856115 -0.149755
			-0.492720 -0.808833 -0.320960
			-0.949960  0.054644 -0.307553
			-0.930953 -0.150436 -0.332710
			-0.955201 -0.106118 -0.276280
			-0.769311 -0.495358 -0.403462
			-0.918440 -0.126530 -0.374778
			-0.864062 -0.255175 -0.433916
			-0.561882 -0.754543 -0.339047
			-0.905714 -0.197222 -0.375214
			-0.841380  0.106979 -0.529750
			-0.791158  0.281147 -0.543162
			-0.897299 -0.076499 -0.434745
			-0.896139  0.134684 -0.422842
			-0.345734 -0.603466 -0.718538
			 0.053451 -0.807752 -0.587094
			 0.062134 -0.846397 -0.528916
			-0.069410 -0.858097 -0.508774
			 0.035159 -0.958633  0.282464
			-0.005039 -0.900739  0.434331
			 0.178171 -0.817419  0.547796
			 0.066206 -0.858099  0.509199
			 0.747211 -0.406086  0.526089
			 0.416723 -0.694153  0.586936
			 0.890930  0.129951  0.435152
			 0.876594 -0.293727  0.381193
			 0.909241 -0.049245  0.413348
			 0.911467 -0.189430  0.365164
			 0.920339 -0.168187  0.353115
			 0.874862 -0.215458  0.433813
			-0.164640 -0.969175  0.183285
			-0.318791 -0.795179 -0.515813
			-0.531487 -0.776911 -0.337538
			-0.648839 -0.751019 -0.122385
			-0.508818 -0.856559  0.086090
			 0.823846  0.419769  0.380882
			-0.637454 -0.741578 -0.209081
			-0.709549 -0.681148 -0.180495
			-0.777749 -0.624619 -0.070412
			-0.737448 -0.661212 -0.137725
			-0.808194  0.438058 -0.393608
			-0.876389  0.379080 -0.297054
			-0.791745  0.519068 -0.322037
			-0.697886  0.586527 -0.411024
			-0.768628  0.497393 -0.402257
			-0.754483  0.404339 -0.516977
			-0.443778  0.852408 -0.276517
			-0.623804  0.640798 -0.447489
			-0.473221  0.807698 -0.351689
			-0.272510  0.899705 -0.340982
			-0.081744  0.919982 -0.383343
			 0.349973  0.826761 -0.440437
			 0.290223  0.764041 -0.576205
			 0.180325  0.811998 -0.555105
			 0.235359  0.778998 -0.581178
			 0.495158  0.801218 -0.335957
			 0.508035  0.825407 -0.246177
			 0.013898  0.850705 -0.525459
			 0.616071  0.767442 -0.177452
			 0.496156  0.753655 -0.431085
			 0.533199  0.796135 -0.286127
			 0.495001  0.755972 -0.428346
			 0.483516  0.770255 -0.415836
			 0.534933  0.770161 -0.347418
			 0.533800  0.760872 -0.368960
			 0.514696  0.740835 -0.431569
			 0.387872  0.871133 -0.301137
			 0.475271  0.867816 -0.144961
			 0.704847  0.695780  0.138133
			 0.643854  0.762815  0.059704
			 0.638257  0.768508 -0.044992
			 0.598890  0.799092 -0.052759
			 0.557722  0.812472 -0.169808
			 0.726770  0.664623  0.173441
			 0.775490  0.569097  0.273391
			 0.922690  0.280501  0.264503
			 0.829341  0.443137  0.340328
			 0.890381  0.322012  0.321762
			-0.713165 -0.596502 -0.368214
			-0.648817 -0.721581 -0.241573
			-0.610398 -0.781038 -0.131886
			-0.544688 -0.829388 -0.124220
			-0.569835 -0.818094 -0.077519
			-0.959595 -0.004980 -0.281340
			-0.815993 -0.407533 -0.409966
			-0.864723 -0.230361 -0.446305
			-0.894150 -0.214000 -0.393318
			-0.866133 -0.193306 -0.460919
			-0.907421 -0.265902 -0.325397
			-0.896162 -0.313896 -0.313627
			-0.770394  0.149954 -0.619683
			-0.773761  0.124082 -0.621207
			-0.803395  0.076288 -0.590539
			 0.097041 -0.921873  0.375143
			 0.220966 -0.867319  0.446017
			 0.126064 -0.871039  0.474762
			-0.022887 -0.840781  0.540891
			 0.196271 -0.850320  0.488297
			 0.298827 -0.804125  0.513892
			 0.225990 -0.856980  0.463156
			 0.662403 -0.573525  0.481966
			 0.868578 -0.342305  0.358329
			 0.938278 -0.055209  0.341447
			 0.920351  0.170443  0.352000
			 0.906534 -0.305140  0.291695
			 0.939057 -0.182355  0.291407
			 0.927983 -0.202283  0.312936
			 0.925929 -0.038639  0.375717
			 0.936190 -0.166965  0.309308
			 0.910580 -0.277326  0.306488
			 0.902346 -0.335812  0.270188
			 0.954549 -0.171067  0.244074
			-0.360559 -0.881149  0.305900