<?xml version="1.0"?>
<VTKFile type="PolyData" version="0.1" byte_order="LittleEndian" compressor="vtkZLibDataCompressor">
	<PolyData>
		<Piece NumberOfPoints="798" NumberOfVerts="0" NumberOfLines="0" NumberOfStrips="0" NumberOfPolys="1595">
		<PointData Normals="Normals">
		<DataArray type="Float32" Name="Normals" NumberOfComponents="3" format="ascii">
			-0.513968  0.585137  0.627258
			-0.513234  0.426384  0.744841
			-0.262641  0.497173  0.826945
			-0.245101  0.697710  0.673146
			-0.682906  0.527906  0.504931
			-0.483783  0.761697  0.431012
			-0.195058  0.155231  0.968429
			-0.366412  0.053342  0.928923
			-0.735818  0.308063  0.603050
			 0.035190  0.054908  0.997871
			 0.118121  0.180788  0.976403
			-0.066447  0.848742  0.524615
			 0.202520  0.216850  0.954967
			-0.210994  0.930749  0.298642
			-0.904955  0.328444  0.270519
			-0.913365  0.406524  0.022407
			-0.792829  0.609350 -0.010718
			-0.623402  0.774159 -0.109765
			 0.172409 -0.363080  0.915668
			 0.083580 -0.205756  0.975028
			-0.324585 -0.037349  0.945119
			-0.839322  0.375630  0.392988
			 0.297229 -0.250379  0.921393
			 0.412264 -0.253945  0.874957
			 0.278941  0.271312  0.921185
			 0.179674  0.939013  0.293208
			 0.071509  0.746078  0.662007
			-0.104973  0.973156  0.204812
			-0.063833  0.991998  0.108931
			 0.444593 -0.258050  0.857757
			-0.431409  0.897042 -0.095930
			-0.299692  0.942721 -0.146497
			-0.958620  0.284066  0.018828
			-0.891949  0.426503 -0.150073
			-0.952789  0.296338 -0.066164
			-0.920201  0.356671 -0.161295
			-0.835651  0.479103 -0.268603
			-0.772099  0.608849 -0.182115
			-0.554574  0.769339 -0.317119
			-0.643495  0.714886 -0.273591
			 0.412549 -0.354137  0.839280
			 0.255539 -0.605147  0.753988
			 0.283217 -0.682084  0.674203
			 0.340244 -0.565723  0.751127
			 0.083468 -0.362536  0.928225
			 0.012505 -0.407591  0.913079
			 0.110152 -0.429735  0.896211
			-0.455066  0.066123  0.887999
			-0.813436  0.379347  0.440928
			-0.721435  0.352486  0.596058
			-0.806740  0.576586 -0.129300
			 0.490808 -0.378162  0.784921
			 0.449685 -0.216254  0.866613
			 0.434850  0.425450  0.793661
			 0.267126  0.838616  0.474729
			 0.232999  0.954486  0.186195
			 0.085190  0.995731  0.035526
			 0.554473  0.658109  0.509365
			-0.313960  0.868736 -0.383049
			-0.428127  0.823658 -0.371879
			-0.081172  0.982362 -0.168452
			-0.548852  0.741194 -0.386515
			-0.928952  0.367384  0.045572
			-0.823965  0.566610 -0.005948
			-0.913211  0.406783 -0.023929
			-0.880449  0.470485 -0.058763
			-0.593446  0.801307 -0.075697
			-0.796033  0.602286  0.059853
			-0.216489  0.879216 -0.424396
			 0.173778  0.650120 -0.739692
			 0.508825 -0.535763  0.673837
			 0.333242 -0.723869  0.604123
			 0.130856 -0.515133  0.847063
			 0.400313 -0.569977  0.717549
			 0.390188 -0.695149  0.603756
			 0.108236 -0.482166  0.869368
			 0.138559 -0.492252  0.859354
			 0.440093 -0.731992  0.520102
			 0.487488 -0.694260  0.529489
			-0.263607  0.053547  0.963143
			-0.726376  0.407802  0.553241
			-0.824380  0.541292  0.165532
			-0.784098  0.452165  0.425133
			-0.778963  0.624505  0.056665
			 0.478894 -0.603306  0.637716
			 0.461041 -0.396224  0.794007
			 0.537021 -0.599998  0.592968
			 0.455790 -0.399753  0.795269
			 0.599232 -0.006418  0.800550
			 0.112406  0.987690  0.108781
			 0.107916  0.988213  0.108583
			 0.126109  0.989521  0.070316
			 0.289758  0.911802  0.290959
			 0.670107  0.219262  0.709141
			 0.524368  0.531719  0.665066
			-0.402422  0.827609 -0.391306
			-0.185150  0.851320 -0.490891
			-0.169939  0.690332 -0.703252
			-0.097370  0.954495 -0.281884
			-0.230100  0.852204 -0.469896
			-0.183452  0.862453 -0.471721
			-0.842986  0.525141  0.116625
			-0.844300  0.529202  0.084283
			-0.735705  0.674195  0.064806
			-0.459710  0.871355 -0.171483
			-0.667592  0.741494 -0.067133
			-0.719210  0.691163  0.070928
			-0.841751  0.523407  0.132287
			-0.515151  0.825309 -0.231267
			 0.111788  0.487682 -0.865835
			 0.373263  0.748849 -0.547632
			 0.032663  0.651970 -0.757541
			-0.302103  0.788629 -0.535536
			 0.557590 -0.042782 -0.829013
			 0.692063  0.250068 -0.677137
			 0.098774 -0.329596 -0.938941
			 0.684566  0.449964 -0.573500
			 0.506811 -0.654014  0.561611
			 0.462848 -0.544794  0.699264
			 0.448867 -0.512122  0.732291
			 0.573097 -0.555074  0.602870
			 0.497641 -0.522444  0.692391
			 0.634154  0.364251  0.682034
			 0.535504 -0.746772  0.394420
			 0.573183 -0.728431  0.375299
			 0.491482 -0.819948  0.293480
			 0.529278 -0.722279  0.445172
			 0.532986 -0.688038  0.492473
			-0.383454  0.917042 -0.109531
			-0.687331  0.707199  0.165666
			-0.814915  0.570132  0.104222
			 0.505658 -0.686377  0.522681
			 0.448758 -0.711027  0.541347
			 0.414245 -0.738652  0.531784
			 0.455656 -0.628878  0.629992
			 0.588693 -0.263535  0.764193
			-0.059706  0.970293 -0.234448
			-0.090389  0.949396 -0.300793
			 0.118828  0.992784  0.016104
			 0.345730  0.897570  0.273568
			 0.402119  0.786516  0.468715
			 0.286630  0.957640 -0.027734
			 0.654607 -0.153268  0.740269
			 0.658855 -0.045802  0.750874
			 0.583626  0.489755  0.647704
			 0.626350  0.072412  0.776171
			 0.531457  0.748414  0.396774
			-0.163777  0.557832 -0.813634
			-0.221715  0.839422 -0.496199
			-0.328959  0.188396 -0.925361
			-0.862213  0.493097  0.115946
			-0.639890  0.743410 -0.194635
			-0.755851  0.653298  0.043486
			-0.675523  0.724527 -0.136854
			-0.770447  0.637471  0.006466
			-0.897559  0.424841  0.117888
			-0.862892  0.489942  0.123991
			-0.899149  0.426557  0.097883
			-0.649881  0.722714 -0.235242
			 0.246334  0.601521 -0.759929
			 0.261063  0.232177 -0.936984
			 0.093741  0.486029 -0.868901
			 0.341484  0.340581 -0.876010
			 0.294765  0.183994 -0.937689
			 0.312128  0.137073 -0.940099
			 0.688835  0.530947 -0.493560
			 0.734736  0.628172 -0.256052
			 0.461936  0.600794 -0.652428
			 0.656938  0.665224 -0.354837
			-0.194470  0.618354 -0.761459
			-0.623974  0.706851 -0.333193
			 0.753360  0.046698 -0.655948
			 0.284556 -0.367500 -0.885421
			 0.537229 -0.377484 -0.754248
			 0.776185 -0.082314 -0.625109
			 0.782779  0.434383 -0.445611
			 0.892531  0.206395 -0.400986
			 0.039088 -0.529046 -0.847692
			-0.212610 -0.584720 -0.782879
			-0.367165 -0.546788 -0.752471
			 0.555168 -0.450326  0.699281
			 0.572289 -0.576571  0.583139
			 0.695708 -0.523381  0.491998
			 0.689358 -0.675636  0.261346
			 0.570048 -0.380264  0.728317
			 0.588895 -0.548892  0.593228
			 0.514481 -0.372022  0.772599
			 0.707515 -0.402877  0.580614
			 0.701235  0.694673  0.160310
			-0.342167  0.809985 -0.476283
			 0.592114 -0.793935  0.138087
			 0.456868 -0.773441  0.439387
			 0.366508 -0.899895 -0.236349
			 0.194249 -0.979744 -0.048679
			-0.306463  0.950047 -0.059093
			-0.150490  0.981555  0.117912
			 0.386891 -0.774370  0.500666
			 0.341418 -0.859678  0.379984
			 0.407797 -0.751811  0.518151
			 0.515190 -0.569652  0.640371
			-0.402934  0.544665 -0.735516
			 0.009286  0.983888 -0.178546
			-0.385766  0.553593 -0.738051
			 0.439345  0.860907  0.256544
			 0.054118  0.965836 -0.253442
			 0.254734  0.889250 -0.379929
			 0.171485  0.938459 -0.299813
			 0.530029  0.842260  0.098322
			 0.467561  0.873731 -0.134095
			 0.597184 -0.337587  0.727603
			 0.639981 -0.036959  0.767501
			 0.625711  0.422482  0.655740
			 0.560688  0.823014  0.090978
			-0.585226 -0.371593 -0.720714
			-0.848045  0.529857  0.008434
			-0.801162  0.592273 -0.085740
			 0.069108  0.994268  0.081579
			-0.123739  0.962415 -0.241756
			-0.477807  0.601471 -0.640260
			-0.930516  0.366246  0.002143
			-0.685084  0.648734 -0.331366
			 0.417857  0.513573 -0.749425
			 0.137431  0.355336 -0.924581
			 0.327500  0.159873 -0.931227
			 0.351648  0.044524 -0.935073
			 0.448445  0.245213 -0.859516
			 0.911471  0.371462 -0.176740
			 0.563457  0.227234 -0.794280
			 0.801769  0.363332 -0.474506
			 0.775783  0.595843 -0.207681
			 0.778041  0.575980 -0.250797
			-0.418088  0.612377 -0.670966
			 0.964723 -0.210251 -0.158442
			 0.276131 -0.454072 -0.847095
			 0.040112 -0.511559 -0.858312
			-0.011562 -0.617788 -0.786260
			 0.797618 -0.494180 -0.345820
			 0.241800 -0.675384 -0.696698
			 0.452515 -0.746213 -0.488258
			 0.980575  0.180566 -0.076604
			-0.412940 -0.597323 -0.687521
			-0.373940 -0.579897 -0.723801
			-0.581235 -0.622725 -0.523813
			-0.518995 -0.629267 -0.578504
			 0.599962 -0.330748  0.728458
			 0.556659 -0.346985  0.754806
			 0.548998 -0.309122  0.776559
			 0.641580 -0.445566  0.624377
			 0.651916 -0.278265  0.705390
			 0.594849 -0.312014  0.740812
			 0.697561 -0.379956  0.607488
			 0.741743 -0.431084  0.513794
			 0.785405 -0.533569  0.313756
			 0.750951 -0.653704  0.093504
			 0.701970 -0.708189  0.075543
			 0.821563 -0.336833  0.459975
			 0.674241 -0.371674  0.638167
			 0.710576 -0.191023  0.677194
			 0.749789  0.630320  0.201279
			 0.839561  0.308331  0.447291
			 0.314186  0.921621 -0.227822
			-0.643291  0.584806 -0.494145
			-0.358030  0.690522 -0.628485
			 0.188908  0.938655 -0.288513
			 0.662751 -0.747521 -0.044420
			 0.594199 -0.774878 -0.215621
			 0.286101 -0.869084 -0.403533
			 0.180982 -0.844838 -0.503482
			 0.309466 -0.872419  0.378307
			 0.038740 -0.998687  0.033522
			-0.185241 -0.863245 -0.469568
			 0.064118 -0.835894 -0.545133
			-0.005402  0.938029  0.346516
			-0.594766  0.780310  0.193313
			-0.836167  0.538742 -0.102867
			 0.313228  0.851940  0.419627
			 0.440934 -0.686472  0.578216
			 0.347127 -0.817054  0.460355
			-0.131922  0.337352 -0.932089
			-0.638384 -0.340118 -0.690497
			-0.672351 -0.287206 -0.682244
			 0.460780  0.823385 -0.331238
			 0.427155 -0.681649  0.594048
			 0.569589 -0.422308  0.705141
			 0.662877 -0.069561  0.745490
			 0.789886  0.496130  0.360465
			 0.618312  0.776743 -0.119835
			-0.675415 -0.455223 -0.580160
			-0.939198  0.324526  0.112210
			-0.851471  0.498880 -0.161602
			-0.669273  0.622599 -0.405517
			 0.447070  0.884925  0.130527
			 0.205727  0.915850 -0.344813
			-0.348526  0.117540 -0.929900
			-0.084381  0.382535 -0.920080
			-0.848451  0.318152 -0.422978
			-0.604793  0.127308 -0.786142
			-0.968336  0.238170  0.074832
			-0.988411  0.111214  0.103319
			-0.983293  0.181892  0.007096
			-0.393254  0.552017 -0.735275
			 0.159787  0.356976 -0.920346
			 0.357821  0.021552 -0.933541
			 0.364990  0.246722 -0.897725
			 0.449463  0.076847 -0.889987
			 0.371579  0.048733 -0.927121
			 0.249127  0.004414 -0.968461
			 0.417296  0.102136 -0.903013
			 0.974876  0.187493  0.120261
			 0.958118  0.286191 -0.010265
			 0.784385  0.262368 -0.562053
			 0.784130 -0.618320 -0.053101
			 0.959428 -0.072516  0.272470
			 0.848847 -0.480725  0.219914
			 0.833339 -0.300746  0.463787
			-0.317196 -0.724037 -0.612501
			-0.518369 -0.599179 -0.610146
			-0.443176 -0.698237 -0.562192
			-0.638282 -0.526450 -0.561646
			-0.624106 -0.680296 -0.384304
			-0.411836 -0.874514 -0.256156
			-0.298260 -0.870204 -0.392156
			 0.608218 -0.350784  0.712054
			 0.789991 -0.435636  0.431435
			 0.603220 -0.217084  0.767464
			 0.577835 -0.288381  0.763507
			 0.688878 -0.312062  0.654267
			 0.773985 -0.376720  0.508949
			 0.883057 -0.378748  0.277055
			 0.881165 -0.464564 -0.087913
			 0.671382 -0.225327  0.706027
			 0.866092 -0.499858  0.005115
			 0.350896 -0.597375 -0.721121
			 0.774041 -0.613151 -0.157818
			 0.364940 -0.163609  0.916543
			 0.391553  0.015143  0.920031
			 0.553723  0.275823  0.785693
			 0.704417  0.409085  0.580040
			 0.500881  0.817933  0.283027
			-0.098198  0.906588 -0.410433
			-0.257541  0.925605 -0.277359
			-0.391711  0.907798 -0.149884
			-0.495145  0.868396 -0.026823
			-0.710002  0.696383 -0.104634
			-0.693615  0.670412  0.263524
			-0.739725  0.504811  0.444942
			-0.926322  0.288280 -0.242532
			-0.314037 -0.851665 -0.419581
			-0.040355 -0.999097 -0.013272
			 0.321778 -0.809875  0.490471
			-0.502751  0.815933  0.285473
			-0.774473  0.609030  0.171097
			-0.891058  0.401009  0.212620
			-0.917730  0.387404  0.087697
			-0.975182 -0.210920  0.067324
			-0.841000 -0.478163 -0.253138
			 0.765351  0.540582  0.349298
			-0.236135  0.850312  0.470329
			 0.127125  0.092198 -0.987592
			 0.422991  0.455934 -0.783073
			-0.319589 -0.284253 -0.903915
			-0.592632 -0.437257 -0.676457
			 0.503050  0.682297 -0.530482
			 0.651542  0.711874 -0.262162
			 0.602002 -0.404452  0.688485
			 0.688511  0.705390 -0.168454
			 0.908234  0.403149  0.112168
			-0.880111  0.355958 -0.314162
			 0.586919  0.771606 -0.245256
			 0.597403  0.356750 -0.718220
			 0.063004 -0.126974 -0.989903
			-0.340427 -0.246545 -0.907373
			-0.852533  0.084216 -0.515844
			-0.649676 -0.249942 -0.717949
			-0.972889  0.039586 -0.227861
			-0.931724  0.163689 -0.324186
			-0.958958 -0.017552 -0.283003
			-0.191651  0.432459 -0.881050
			 0.296838  0.128175 -0.946287
			 0.439775  0.086136 -0.893968
			 0.390442  0.127973 -0.911690
			 0.485853  0.152824 -0.860576
			 0.295688  0.327084 -0.897544
			 0.500633  0.253594 -0.827682
			 0.355218  0.106858 -0.928656
			 0.173901  0.061924 -0.982814
			 0.868400 -0.084106  0.488679
			 0.953697  0.148931  0.261308
			 0.931063  0.267548 -0.248074
			 0.527746  0.178375 -0.830462
			 0.662194 -0.205596  0.720576
			-0.468080 -0.812292 -0.347970
			-0.354195 -0.929759 -0.100470
			-0.032301 -0.971040  0.236722
			 0.696660 -0.601334  0.391231
			 0.617804 -0.397875  0.678243
			 0.661826 -0.563660  0.494240
			 0.724368 -0.672466  0.151925
			 0.555042 -0.283356  0.782073
			 0.610271 -0.195151  0.767780
			 0.878178 -0.472354 -0.075403
			 0.887832 -0.357198  0.290109
			 0.891778 -0.446224 -0.074943
			 0.875902 -0.474513 -0.087369
			 0.862998 -0.485303 -0.140413
			 0.901603 -0.391703  0.183521
			 0.780222 -0.273257  0.562659
			 0.702149 -0.647169  0.296915
			 0.627186 -0.398179  0.669397
			 0.057563 -0.263027  0.963070
			 0.144734 -0.417117  0.897255
			 0.106575 -0.365735  0.924597
			-0.564712 -0.354016  0.745501
			-0.457506 -0.381156  0.803373
			 0.527769 -0.353742  0.772222
			 0.824629 -0.565049  0.026562
			 0.854286 -0.519120  0.026643
			-0.017034 -0.539840 -0.841595
			-0.626534  0.031410 -0.778761
			-0.240013 -0.294105 -0.925146
			-0.266815 -0.173434 -0.948014
			 0.506384 -0.558761 -0.656781
			-0.371964 -0.325738 -0.869216
			 0.631320 -0.752591 -0.187195
			 0.164654 -0.683223 -0.711404
			-0.064998  0.170290  0.983248
			-0.921617  0.201803  0.331507
			-0.266562  0.564433  0.781256
			-0.290720  0.455995  0.841160
			-0.145254  0.606733  0.781522
			 0.241887  0.471224  0.848198
			 0.321443  0.742700  0.587427
			 0.089798  0.828259  0.553103
			 0.482544  0.641429  0.596423
			 0.240468  0.917939  0.315536
			 0.031429  0.949068  0.313501
			-0.195309  0.830997  0.520863
			-0.452920  0.756436  0.471878
			-0.631678 -0.547620 -0.548721
			-0.823691 -0.013282 -0.566884
			-0.807343  0.103981 -0.580848
			 0.280896 -0.761744  0.583818
			-0.890694  0.192276 -0.411939
			-0.954849  0.045624 -0.293567
			-0.991151 -0.013594 -0.132037
			-0.993260  0.114670  0.016917
			-0.509422 -0.851344 -0.125310
			 0.007990 -0.961994 -0.272952
			 0.988585  0.150002 -0.014114
			 0.796548  0.075930  0.599788
			 0.432381  0.343611  0.833654
			-0.859771  0.395964 -0.322500
			-0.839830 -0.017482 -0.542568
			-0.441964  0.886584  0.136515
			 0.188004  0.536038  0.822993
			 0.625484  0.197661 -0.754784
			 0.263242 -0.146950 -0.953472
			 0.723954  0.441947 -0.529692
			-0.349311 -0.701275 -0.621446
			 0.132631 -0.516330 -0.846057
			 0.713020  0.621599 -0.324372
			 0.249611 -0.765839  0.592608
			 0.448759 -0.692370  0.565013
			 0.819240 -0.331640  0.467825
			 0.715847  0.633824 -0.292969
			 0.787938  0.494277 -0.367211
			 0.967671 -0.251598 -0.017631
			 0.971775  0.221836 -0.080264
			 0.832327  0.430738 -0.348850
			-0.640592  0.286547 -0.712413
			 0.849172 -0.207945 -0.485455
			 0.365400 -0.307268 -0.878675
			 0.095995 -0.420945 -0.901992
			-0.512200 -0.483188 -0.710056
			-0.830069 -0.203506 -0.519201
			-0.889090 -0.161747 -0.428202
			-0.770786  0.054823 -0.634731
			-0.695561 -0.126610 -0.707224
			-0.899649 -0.147219 -0.411045
			-0.096236  0.313511 -0.944696
			 0.387983  0.249437 -0.887271
			 0.455923  0.202513 -0.866674
			 0.264194  0.220415 -0.938946
			 0.279509  0.098953 -0.955030
			 0.473661  0.285558 -0.833128
			 0.295811  0.285922 -0.911452
			 0.511042  0.277370 -0.813574
			 0.787016 -0.055990  0.614386
			 0.926195  0.094520  0.365004
			 0.781609  0.215624 -0.585315
			 0.599243 -0.264994  0.755438
			 0.619318 -0.174786  0.765438
			 0.718212 -0.076083  0.691652
			 0.737192 -0.052974  0.673604
			-0.231754 -0.920508 -0.314572
			-0.123555 -0.988554 -0.086578
			 0.092223 -0.968041  0.233219
			 0.612354 -0.769530  0.181234
			 0.620487 -0.270340  0.736147
			 0.794213 -0.332854  0.508365
			 0.729475 -0.586773  0.351516
			 0.857063 -0.487364 -0.167094
			 0.893141 -0.445425 -0.062410
			 0.910162 -0.409821 -0.060434
			 0.561959 -0.463504 -0.685102
			 0.899038 -0.420277 -0.122872
			 0.867852 -0.494512 -0.047861
			 0.845405 -0.516564 -0.135837
			 0.359718 -0.311883 -0.879393
			 0.761843 -0.498830 -0.413235
			 0.948769 -0.313113 -0.042414
			 0.921475 -0.383691  0.060541
			 0.832645 -0.496723  0.244885
			 0.263226 -0.861777  0.433651
			 0.095961 -0.953521 -0.285639
			 0.152346 -0.801291 -0.578553
			 0.011758 -0.431089 -0.902233
			 0.720106 -0.675962 -0.156596
			 0.126715 -0.631898  0.764623
			-0.991819  0.064291  0.110278
			 0.360192 -0.346371  0.866192
			-0.360398 -0.299588  0.883380
			-0.333143 -0.433260  0.837438
			-0.746687 -0.426034  0.510835
			-0.362420 -0.599198  0.713872
			-0.774712 -0.341920  0.531895
			-0.998945  0.008367 -0.045153
			-0.996854 -0.055564 -0.056522
			 0.011587 -0.384116  0.923212
			-0.869088 -0.186976  0.457959
			-0.987658  0.077034 -0.136372
			-0.498503 -0.384570 -0.776918
			-0.569258 -0.165308 -0.805368
			-0.791795  0.281812 -0.541888
			-0.856126  0.205762 -0.474035
			-0.773572  0.239406 -0.586746
			-0.422149 -0.091394 -0.901907
			-0.898509  0.095507 -0.428438
			-0.352285 -0.101162 -0.930409
			 0.516083 -0.771596 -0.371885
			-0.447018 -0.376372 -0.811492
			 0.161257 -0.398928 -0.902692
			-0.829726  0.236579 -0.505555
			-0.556261 -0.246506 -0.793605
			-0.614533 -0.465052 -0.637241
			-0.471359 -0.486723 -0.735474
			-0.660086  0.118403 -0.741800
			-0.449734 -0.599977 -0.661640
			-0.181448 -0.626394 -0.758094
			-0.560086 -0.355750 -0.748161
			-0.343482 -0.867734 -0.359246
			 0.300577 -0.929225 -0.214929
			-0.197458 -0.871085 -0.449689
			 0.947773 -0.204612  0.244664
			 0.602807 -0.165917  0.780446
			 0.274180  0.190251  0.942672
			-0.390435 -0.669107 -0.632342
			-0.863866  0.186499 -0.467925
			-0.201020 -0.618852 -0.759350
			-0.414690 -0.613705 -0.671862
			-0.718262 -0.426841 -0.549461
			-0.344599  0.936426  0.066017
			-0.472800  0.878255 -0.071606
			-0.822050  0.338092 -0.458178
			-0.073402  0.724372  0.685490
			-0.297113  0.938976  0.173342
			 0.583083  0.001183 -0.812412
			 0.713708  0.086628 -0.695066
			 0.761972  0.438358 -0.476698
			 0.121817 -0.821700 -0.556749
			 0.518490 -0.317041 -0.794137
			 0.587616 -0.550625 -0.592891
			 0.600864 -0.797570  0.053332
			 0.816111  0.243641 -0.524024
			 0.947155  0.109904 -0.301362
			 0.694191 -0.578646 -0.428098
			 0.884366 -0.320993 -0.338911
			-0.305789  0.187905 -0.933373
			 0.435359 -0.544905 -0.716618
			 0.715456 -0.516415 -0.470572
			 0.959955 -0.238882 -0.146359
			-0.632068 -0.556570 -0.539184
			-0.720519 -0.035903 -0.692505
			-0.720001 -0.238325 -0.651767
			-0.878422  0.012578 -0.477720
			-0.375157  0.036482 -0.926243
			-0.174589 -0.028833 -0.984219
			 0.467614  0.249865 -0.847882
			 0.373100  0.363289 -0.853708
			 0.295856  0.321055 -0.899663
			 0.486203  0.284913 -0.826094
			 0.794049  0.186090 -0.578668
			 0.284389  0.336062 -0.897878
			 0.234012  0.294957 -0.926412
			 0.503296  0.305328 -0.808374
			 0.132067  0.279149 -0.951122
			 0.493785  0.332106 -0.803668
			 0.432825  0.323544 -0.841416
			 0.537521  0.281290 -0.794951
			 0.910601 -0.028433  0.412307
			 0.697340 -0.238122  0.676029
			 0.205529 -0.911923 -0.355182
			 0.682833 -0.729333  0.042564
			 0.912118 -0.402286  0.078780
			 0.729189  0.202804 -0.653571
			 0.944099  0.050879 -0.325711
			 0.932366 -0.133688  0.335889
			 0.868796 -0.492750  0.048891
			 0.847925 -0.456840 -0.268924
			 0.868942 -0.452587 -0.200263
			 0.499683 -0.483494 -0.718714
			-0.360997 -0.061211 -0.930556
			-0.549033  0.099568 -0.829849
			 0.301943 -0.472876 -0.827779
			-0.347607 -0.101977 -0.932079
			-0.684197  0.145937 -0.714546
			-0.534357 -0.059439 -0.843166
			 0.639812 -0.371309 -0.672882
			 0.557146 -0.551783 -0.620584
			 0.744520 -0.570149 -0.347306
			-0.640307 -0.768043 -0.010790
			-0.257484 -0.961436 -0.096659
			-0.592456 -0.741367  0.315230
			-0.614687 -0.613894 -0.495271
			-0.301628 -0.628509 -0.716936
			-0.371593 -0.281511 -0.884686
			-0.663523  0.241225 -0.708201
			-0.639253  0.071817 -0.765636
			 0.364589 -0.558301 -0.745235
			-0.667540 -0.277174  0.691060
			-0.989526 -0.095027 -0.108662
			-0.958825 -0.274896 -0.071326
			-0.752495 -0.537164  0.381058
			-0.881460  0.161908 -0.443636
			-0.866215  0.124683 -0.483866
			-0.768170  0.196877 -0.609224
			-0.847386  0.257095 -0.464585
			-0.699705  0.207795 -0.683545
			-0.576721  0.059279 -0.814788
			 0.545042  0.069981 -0.835483
			 0.816877 -0.099570 -0.568154
			 0.120224  0.125511 -0.984781
			 0.351099  0.350742 -0.868164
			-0.675002 -0.108508 -0.729793
			 0.102530 -0.865644 -0.490049
			 0.059738 -0.753601 -0.654612
			 0.699176 -0.560571  0.443750
			 0.889436 -0.455311 -0.039943
			 0.407383 -0.153067  0.900339
			 0.494381 -0.410322  0.766305
			 0.097737  0.021327  0.994984
			 0.332280 -0.364165  0.870042
			-0.617049 -0.487865 -0.617445
			 0.215482 -0.694390 -0.686579
			-0.202931 -0.754064 -0.624665
			-0.324055  0.945841 -0.019332
			-0.299058  0.949039  0.099442
			-0.644421  0.356561 -0.676450
			-0.328145  0.944618 -0.004119
			-0.347583  0.799566 -0.489777
			-0.593007 -0.250743 -0.765161
			-0.220299  0.849049  0.480192
			-0.293142  0.940424  0.172252
			 0.787705 -0.180035 -0.589159
			 0.641146 -0.576795 -0.506201
			 0.874506 -0.150997 -0.460912
			 0.505004 -0.735578 -0.451549
			 0.181799  0.282213 -0.941969
			 0.350458  0.390042 -0.851496
			 0.303515  0.426569 -0.852008
			 0.382427  0.453518 -0.805029
			 0.514265  0.308570 -0.800198
			 0.548221  0.300730 -0.780394
			 0.473996  0.449361 -0.757234
			 0.932779 -0.174864 -0.315192
			 0.303144  0.539748 -0.785351
			 0.684664  0.276886 -0.674218
			 0.324395  0.561941 -0.760914
			-0.015837 -0.407842 -0.912915
			-0.615231  0.048924 -0.786827
			 0.299626 -0.423644 -0.854839
			-0.884514 -0.262159 -0.385885
			-0.641184 -0.358467 -0.678517
			 0.357591  0.598937 -0.716522
			 0.358702  0.588116 -0.724881
			 0.400209  0.572655 -0.715471
			 0.359058  0.619896 -0.697715
			 0.522548 -0.851819  0.036707
			 0.554505 -0.729817  0.399865
			 0.689404 -0.722065 -0.057825
			 0.476724 -0.581525  0.659214
			-0.114523  0.008980  0.993380
			 0.229571 -0.685770  0.690664
			 0.267028 -0.872709 -0.408747
			-0.178014 -0.684222 -0.707214
			-0.279209  0.959605  0.034648
			-0.262702  0.954543  0.140835
			-0.044434 -0.425424 -0.903903
			-0.312190  0.948745  0.049192
			-0.279362  0.960060  0.015516
			-0.324667  0.945805 -0.006647
			 0.195127 -0.314786 -0.928889
			-0.328454  0.944388  0.015813
			-0.169331  0.835720 -0.522398
			-0.268370  0.956961  0.110465
			-0.248447  0.836976  0.487591
			 0.303234  0.597753 -0.742119
			 0.348805  0.588299 -0.729547
			 0.382015  0.620810 -0.684587
			 0.327957  0.651507 -0.684093
			 0.441122 -0.895879  0.053031
			 0.441290 -0.878988 -0.180676
			 0.541647 -0.771813  0.333052
			 0.417056 -0.818334  0.395465
			 0.095184 -0.748726  0.656011
			-0.178135  0.601782  0.778541
			-0.283959  0.836657  0.468372
			-0.118101  0.166759  0.978899
			-0.010718 -0.253006  0.967405
			 0.248188 -0.944318  0.216025
			 0.347132 -0.832999 -0.430827
			-0.299711  0.953859  0.018084
			 0.358569 -0.807207 -0.468877
			-0.340235  0.939192  0.046464
			 0.371379 -0.369976 -0.851584
			 0.395776 -0.853664 -0.338555
			-0.358365  0.933537  0.009105
			-0.168114  0.981397 -0.092727
			-0.297246  0.954611 -0.019047
			 0.197766  0.621525 -0.758021
			-0.296743  0.941871  0.157556
			-0.344890  0.930281  0.125015
			 0.431957 -0.886909  0.163725
			 0.399153 -0.915540  0.049623
			 0.394895 -0.845028 -0.360535
			 0.407745 -0.907973 -0.096585
			 0.388952 -0.877773 -0.279697
			 0.382773 -0.852202 -0.356703
			 0.334452 -0.939093  0.079029
			 0.207146 -0.592134  0.778760
			 0.287180 -0.947470  0.140812
			-0.192657  0.817460  0.542809
			-0.022168  0.512121  0.858627
			-0.163821  0.753011  0.637289
			-0.315779  0.918976  0.236150
			-0.410878  0.898077  0.156960
			-0.414953  0.897208  0.151102
			 0.324853 -0.945718  0.009424
			 0.395294 -0.891119 -0.222822
			 0.350589 -0.878778 -0.323786
			 0.471026 -0.698929 -0.538175
			 0.506831 -0.011044 -0.861975
			 0.365842 -0.908211 -0.203254
			 0.367489 -0.926482 -0.081131
			 0.401599 -0.911808 -0.085586
			 0.383000 -0.917947 -0.103360
			 0.375750 -0.906263 -0.193646
			-0.254075  0.966701 -0.030568
			-0.308282  0.951005  0.023473
			-0.193439  0.981102 -0.004489
			-0.099177  0.991879  0.079629
			 0.175996  0.983764  0.035129
			 0.343370  0.585535 -0.734334
			 0.383150 -0.923246  0.028515
			 0.427418 -0.115398  0.896659
			 0.375810 -0.841021  0.389166
			 0.317502 -0.922920  0.217740
			 0.328026 -0.942288 -0.067026
			 0.310844 -0.947111  0.079729
			-0.242288  0.853461  0.461412
			 0.090265  0.709012  0.699395
			-0.140253  0.801805  0.580894
			-0.145525  0.880019  0.452095
			-0.069551  0.915350  0.396607
			-0.245573  0.940196  0.236062
			 0.425306 -0.868169 -0.255729
			 0.707393 -0.254958 -0.659235
			 0.304277 -0.942619 -0.137422
			-0.205319  0.978562  0.016118
			 0.159808  0.908316  0.386555
			-0.150461  0.973570  0.171823
			 0.502392  0.779815 -0.373485
			 0.773559  0.614859 -0.153476
			 0.648130  0.704436  0.289305
			 0.784342  0.218844 -0.580443
			 0.377602  0.623610  0.684491
			 0.536825 -0.791556  0.291990
			 0.748632 -0.206445  0.630024
			 0.578984  0.110645  0.807797
			 0.331466 -0.943113  0.025857
			 0.916645 -0.210641 -0.339695
			 0.910209 -0.411736 -0.044641
			 0.441574 -0.870708 -0.216517
			 0.353741 -0.924553 -0.141667
			 0.657346  0.410731  0.631819
			 0.858839  0.154588  0.488363
			 0.460788 -0.883787 -0.081213
			 0.799424 -0.523913  0.293999
		</DataArray>
	</PointData>
	<Points>
		<DataArray type="Float32" NumberOfComponents="3" format="ascii">
			-0.047175  0.433514 -0.132942
			-0.048537  0.431683 -0.132536
			-0.045627  0.432499 -0.131579
			-0.045294  0.435877 -0.133870
			-0.048961  0.432277 -0.133693
			-0.046590  0.436699 -0.136331
			-0.046105  0.428753 -0.129826
			-0.048000  0.426846 -0.130186
			-0.049310  0.429991 -0.132548
			-0.043647  0.430102 -0.129855
			-0.041061  0.431263 -0.130139
			-0.040548  0.438417 -0.135799
			-0.038638  0.432469 -0.130774
			-0.042446  0.439032 -0.138293
			-0.050026  0.430477 -0.134017
			-0.048674  0.435019 -0.136757
			-0.047574  0.436906 -0.138177
			-0.046064  0.438217 -0.139370
			-0.043812  0.423379 -0.131474
			-0.045944  0.423869 -0.131188
			-0.049680  0.424727 -0.130687
			-0.050251  0.429087 -0.133326
			-0.041433  0.427014 -0.131032
			-0.039020  0.427793 -0.131885
			-0.036069  0.433776 -0.131688
			-0.034367  0.440176 -0.138968
			-0.035203  0.437409 -0.135313
			-0.039298  0.439886 -0.140882
			-0.035952  0.440595 -0.142360
			-0.036634  0.429042 -0.132707
			-0.044071  0.439250 -0.140918
			-0.041125  0.440033 -0.143659
			-0.050664  0.428544 -0.135165
			-0.051361  0.426044 -0.134295
			-0.049982  0.430921 -0.136973
			-0.048957  0.433163 -0.138773
			-0.047487  0.435406 -0.140834
			-0.047054  0.434310 -0.143887
			-0.042588  0.436937 -0.147524
			-0.044897  0.435785 -0.145621
			-0.039666  0.423909 -0.132730
			-0.051894  0.414430 -0.135769
			-0.044690  0.417601 -0.135828
			-0.041107  0.421655 -0.133195
			-0.047230  0.423152 -0.131151
			-0.050763  0.419583 -0.132862
			-0.052582  0.418895 -0.133043
			-0.052346  0.421372 -0.131909
			-0.051860  0.424496 -0.133129
			-0.051562  0.423393 -0.132063
			-0.052930  0.423579 -0.135265
			-0.034175  0.426609 -0.134858
			-0.030583  0.432274 -0.135000
			-0.029860  0.436325 -0.134749
			-0.032184  0.438528 -0.137002
			-0.031364  0.439728 -0.143281
			-0.034349  0.440428 -0.145137
			-0.020030  0.434673 -0.144710
			-0.034083  0.439458 -0.153107
			-0.038067  0.438914 -0.150148
			-0.032122  0.440685 -0.151122
			-0.040430  0.438788 -0.147021
			-0.051053  0.427059 -0.137158
			-0.053290  0.422735 -0.136766
			-0.050183  0.429504 -0.139255
			-0.049607  0.430233 -0.143050
			-0.049016  0.431237 -0.152075
			-0.050861  0.429365 -0.149465
			-0.048763  0.428431 -0.168046
			-0.040338  0.434261 -0.159018