<?xml version="1.0"?>
<VTKFile type="PolyData" version="0.1" byte_order="LittleEndian" compressor="vtkZLibDataCompressor">
	<PolyData>
		<Piece NumberOfPoints="798" NumberOfVerts="0" NumberOfLines="0" NumberOfStrips="0" NumberOfPolys="1595">
		<PointData Normals="Normals">
		<DataArray type="Float32" Name="Normals" NumberOfComponents="3" format="ascii">
			-0.262642  0.497179 -0.826942
			-0.513230  0.426385 -0.744843
			-0.513966  0.585139 -0.627257
			 0.035185  0.054918 -0.997871
			-0.195067  0.155233 -0.968427
			-0.245112  0.697708 -0.673144
			 0.118117  0.180789 -0.976403
			-0.682891  0.527914 -0.504942
			-0.366418  0.053331 -0.928921
			-0.735814  0.308046 -0.603063
			-0.483783  0.761697 -0.431013
			 0.297233 -0.250380 -0.921392
			 0.172406 -0.363074 -0.915671
			 0.202516  0.216848 -0.954968
			-0.066445  0.848745 -0.524612
			-0.210999  0.930749 -0.298641
			 0.412267 -0.253950 -0.874954
			-0.904956  0.328426 -0.270540
			-0.913366  0.406523 -0.022399
			-0.324579 -0.037340 -0.945121
			 0.083579 -0.205720 -0.975035
			-0.839324  0.375613 -0.393002
			-0.792828  0.609352  0.010699
			-0.623399  0.774162  0.109760
			 0.412555 -0.354132 -0.839279
			 0.283215 -0.682084 -0.674203
			 0.255552 -0.605155 -0.753976
			 0.340251 -0.565718 -0.751127
			 0.083476 -0.362515 -0.928232
			 0.444589 -0.258059 -0.857757
			 0.278944  0.271310 -0.921184
			 0.071509  0.746079 -0.662007
			 0.179671  0.939014 -0.293208
			-0.104976  0.973157 -0.204804
			-0.063828  0.991998 -0.108929
			-0.431401  0.897046  0.095925
			-0.299691  0.942721  0.146498
			 0.490805 -0.378161 -0.784923
			-0.958621  0.284061 -0.018821
			-0.891954  0.426497  0.150057
			-0.952786  0.296344  0.066168
			-0.920203  0.356671  0.161280
			 0.012492 -0.407580 -0.913084
			 0.110151 -0.429727 -0.896215
			-0.455037  0.066104 -0.888015
			-0.813430  0.379345 -0.440941
			-0.721426  0.352481 -0.596072
			-0.806738  0.576589  0.129304
			-0.835652  0.479107  0.268594
			-0.772094  0.608854  0.182121
			-0.554574  0.769340  0.317117
			-0.643496  0.714886  0.273590
			 0.508826 -0.535754 -0.673842
			 0.333232 -0.723870 -0.604127
			 0.487491 -0.694260 -0.529486
			 0.440101 -0.731992 -0.520095
			 0.400317 -0.569977 -0.717546
			 0.130865 -0.515140 -0.847056
			 0.390176 -0.695150 -0.603762
			 0.108247 -0.482173 -0.869363
			 0.138565 -0.492256 -0.859351
			 0.449686 -0.216260 -0.866611
			 0.434852  0.425447 -0.793662
			 0.267126  0.838617 -0.474727
			 0.085182  0.995732 -0.035533
			 0.233003  0.954483 -0.186201
			 0.554474  0.658107 -0.509366
			-0.428123  0.823660  0.371880
			-0.313965  0.868737  0.383043
			-0.081170  0.982362  0.168453
			-0.548854  0.741193  0.386512
			 0.461040 -0.396226 -0.794007
			 0.478894 -0.603305 -0.637717
			 0.537019 -0.599996 -0.592971
			-0.928952  0.367384 -0.045577
			-0.823961  0.566615  0.005957
			-0.913213  0.406779  0.023926
			-0.880455  0.470474  0.058760
			-0.263610  0.053545 -0.963142
			-0.726367  0.407801 -0.553253
			-0.784097  0.452172 -0.425126
			-0.824381  0.541287 -0.165541
			-0.778961  0.624507 -0.056665
			-0.796036  0.602283 -0.059852
			-0.593452  0.801302  0.075695
			-0.216504  0.879211  0.424399
			 0.173782  0.650115  0.739696
			 0.506810 -0.654014 -0.561613
			 0.535505 -0.746771 -0.394420
			 0.529279 -0.722275 -0.445178
			 0.491486 -0.819944 -0.293483
			 0.532983 -0.688044 -0.492468
			 0.573182 -0.728430 -0.375302
			 0.448871 -0.512121 -0.732289
			 0.462858 -0.544795 -0.699257
			 0.573099 -0.555076 -0.602866
			 0.497636 -0.522447 -0.692393
			 0.634156  0.364248 -0.682033
			 0.455788 -0.399757 -0.795268
			 0.599231 -0.006427 -0.800550
			 0.112408  0.987689 -0.108787
			 0.107931  0.988210 -0.108586
			 0.126114  0.989520 -0.070321
			 0.289760  0.911801 -0.290961
			 0.670109  0.219258 -0.709140
			 0.524370  0.531718 -0.665066
			-0.169940  0.690328  0.703255
			-0.402415  0.827608  0.391314
			-0.185138  0.851322  0.490891
			-0.097372  0.954493  0.281889
			-0.230101  0.852203  0.469898
			-0.183418  0.862456  0.471729
			 0.505662 -0.686380 -0.522674
			 0.448759 -0.711029 -0.541344
			 0.455655 -0.628877 -0.629993
			 0.414241 -0.738655 -0.531783
			-0.842983  0.525146 -0.116623
			-0.844306  0.529192 -0.084286
			-0.383455  0.917042  0.109529
			-0.687332  0.707199 -0.165665
			-0.814907  0.570143 -0.104228
			-0.735707  0.674192 -0.064807
			-0.841753  0.523406 -0.132284
			-0.667592  0.741494  0.067132
			-0.459726  0.871346  0.171488
			-0.719212  0.691161 -0.070927
			-0.515161  0.825301  0.231274
			 0.373262  0.748850  0.547630
			 0.111798  0.487674  0.865838
			 0.032649  0.651973  0.757539
			-0.302113  0.788640  0.535514
			 0.692060  0.250059  0.677143
			 0.557590 -0.042781  0.829013
			 0.098778 -0.329587  0.938944
			 0.684560  0.449974  0.573499
			 0.555166 -0.450329 -0.699281
			 0.695711 -0.523380 -0.491995
			 0.572288 -0.576573 -0.583137
			 0.689358 -0.675636 -0.261346
			 0.592112 -0.793936 -0.138089
			 0.456869 -0.773441 -0.439386
			 0.366513 -0.899894  0.236346
			 0.194240 -0.979745  0.048686
			 0.514483 -0.372023 -0.772597
			 0.570054 -0.380260 -0.728314
			 0.588892 -0.548895 -0.593229
			 0.707515 -0.402875 -0.580615
			-0.342170  0.809983  0.476285
			 0.701244  0.694660 -0.160328
			 0.588691 -0.263539 -0.764193
			-0.090392  0.949396  0.300793
			-0.059712  0.970293  0.234451
			 0.118834  0.992783 -0.016108
			 0.402126  0.786512 -0.468714
			 0.345730  0.897571 -0.273565
			 0.286634  0.957638  0.027735
			 0.654608 -0.153269 -0.740268
			 0.658857 -0.045800 -0.750873
			 0.626347  0.072408 -0.776174
			 0.583625  0.489759 -0.647702
			 0.531453  0.748418 -0.396772
			-0.163757  0.557830  0.813639
			-0.221720  0.839419  0.496201
			-0.328957  0.188401  0.925361
			 0.515191 -0.569654 -0.640369
			 0.407800 -0.751809 -0.518153
			 0.386887 -0.774372 -0.500665
			 0.341405 -0.859686 -0.379977
			-0.862210  0.493103 -0.115942
			-0.150485  0.981555 -0.117918
			-0.306462  0.950047  0.059095
			-0.770445  0.637474 -0.006462
			-0.897560  0.424837 -0.117895
			-0.862892  0.489944 -0.123983
			-0.755853  0.653296 -0.043483
			-0.899151  0.426553 -0.097880
			-0.639881  0.743416  0.194642
			-0.675522  0.724528  0.136859
			-0.649877  0.722724  0.235224
			 0.734738  0.628167  0.256059
			 0.688839  0.530947  0.493555
			 0.246342  0.601514  0.759932
			 0.461937  0.600803  0.652419
			 0.656937  0.665229  0.354830
			 0.093738  0.486040  0.868895
			 0.261066  0.232178  0.936983
			 0.341487  0.340550  0.876021
			 0.312134  0.137076  0.940097
			 0.294774  0.183981  0.937688
			-0.194471  0.618366  0.761449
			-0.623978  0.706860  0.333167
			 0.782777  0.434375  0.445622
			 0.753357  0.046687  0.655953
			 0.892534  0.206391  0.400980
			 0.284551 -0.367513  0.885418
			 0.776188 -0.082327  0.625103
			 0.537229 -0.377491  0.754245
			 0.039101 -0.529021  0.847707
			-0.212604 -0.584718  0.782882
			-0.367168 -0.546792  0.752467
			 0.556649 -0.346989 -0.754812
			 0.599961 -0.330751 -0.728458
			 0.548995 -0.309123 -0.776562
			 0.641580 -0.445566 -0.624377
			 0.651915 -0.278263 -0.705391
			 0.594847 -0.312017 -0.740812
			 0.697560 -0.379955 -0.607490
			 0.741743 -0.431082 -0.513796
			 0.785405 -0.533570 -0.313754
			 0.750951 -0.653705 -0.093505
			 0.701970 -0.708189 -0.075538
			 0.662752 -0.747520  0.044420
			 0.594192 -0.774882  0.215624
			 0.286108 -0.869090  0.403516
			 0.180994 -0.844845  0.503466
			 0.309457 -0.872423 -0.378304
			 0.038741 -0.998687 -0.033519
			-0.185241 -0.863249  0.469560
			 0.064112 -0.835904  0.545118
			 0.821564 -0.336832 -0.459975
			 0.674241 -0.371674 -0.638167
			 0.710574 -0.191033 -0.677194
			 0.749783  0.630334 -0.201259
			 0.839561  0.308323 -0.447297
			-0.358036  0.690514  0.628491
			-0.643290  0.584805  0.494147
			 0.188900  0.938654  0.288524
			 0.314212  0.921618  0.227796
			-0.402935  0.544666  0.735515
			-0.385765  0.553594  0.738051
			 0.009289  0.983888  0.178546
			 0.439348  0.860905 -0.256544
			 0.054138  0.965835  0.253441
			 0.171501  0.938457  0.299811
			 0.254732  0.889252  0.379925
			 0.530032  0.842258 -0.098324
			 0.467564  0.873729  0.134095
			 0.597180 -0.337587 -0.727606
			 0.639982 -0.036955 -0.767500
			 0.560691  0.823012 -0.090977
			 0.625719  0.422480 -0.655733
			-0.585227 -0.371587  0.720716
			 0.440938 -0.686473 -0.578212
			 0.347137 -0.817046 -0.460361
			 0.313229  0.851943 -0.419621
			-0.005404  0.938029 -0.346516
			 0.069109  0.994269 -0.081567
			-0.594768  0.780311 -0.193304
			-0.836168  0.538738  0.102883
			-0.123737  0.962413  0.241766
			-0.477814  0.601476  0.640250
			-0.848047  0.529854 -0.008436
			-0.930512  0.366257 -0.002134
			-0.801164  0.592272  0.085734
			-0.685084  0.648738  0.331359
			 0.775786  0.595847  0.207661
			 0.911472  0.371459  0.176739
			 0.563465  0.227243  0.794272
			 0.448445  0.245214  0.859516
			 0.801773  0.363340  0.474494
			 0.417855  0.513564  0.749432
			 0.778045  0.575975  0.250796
			 0.137431  0.355333  0.924581
			 0.351651  0.044529  0.935072
			 0.327504  0.159872  0.931226
			-0.418093  0.612369  0.670971
			 0.964723 -0.210253  0.158439
			 0.980576  0.180565  0.076594
			 0.276119 -0.454096  0.847086
			 0.040127 -0.511553  0.858314
			-0.011567 -0.617794  0.786255
			 0.797617 -0.494181  0.345821
			 0.452508 -0.746213  0.488265
			 0.241802 -0.675389  0.696693
			-0.412944 -0.597330  0.687513
			-0.373948 -0.579895  0.723799
			-0.518994 -0.629259  0.578514
			-0.581236 -0.622724  0.523813
			 0.608215 -0.350785 -0.712056
			 0.789991 -0.435634 -0.431437
			 0.577839 -0.288375 -0.763507
			 0.603219 -0.217082 -0.767465
			 0.688879 -0.312062 -0.654265
			 0.773986 -0.376721 -0.508947
			 0.848847 -0.480726 -0.219912
			 0.784136 -0.618313  0.053103
			-0.314030 -0.851669  0.419577
			 0.321778 -0.809875 -0.490471
			-0.040347 -0.999098  0.013266
			-0.298264 -0.870205  0.392150
			-0.317188 -0.724035  0.612508
			 0.881165 -0.464565  0.087910
			 0.883057 -0.378748 -0.277056
			 0.671382 -0.225328 -0.706027
			 0.350897 -0.597375  0.721121
			 0.866093 -0.499856 -0.005115
			 0.774040 -0.613152  0.157821
			 0.364939 -0.163609 -0.916543
			 0.391566  0.015132 -0.920025
			 0.553725  0.275807 -0.785696
			 0.704419  0.409064 -0.580052
			 0.500869  0.817941 -0.283025
			-0.098206  0.906584  0.410440
			-0.257524  0.925612  0.277353
			-0.391714  0.907797  0.149882
			-0.495142  0.868398  0.026830
			-0.710001  0.696383  0.104643
			-0.693624  0.670412 -0.263503
			-0.739732  0.504813 -0.444927
			-0.926322  0.288279  0.242534
			-0.131923  0.337350  0.932090
			-0.638383 -0.340119  0.690497
			-0.672351 -0.287207  0.682243
			 0.460783  0.823385  0.331234
			 0.569584 -0.422309 -0.705145
			 0.427148 -0.681651 -0.594050
			 0.662881 -0.069553 -0.745487
			 0.789885  0.496132 -0.360465
			 0.618314  0.776741  0.119835
			-0.675418 -0.455219  0.580160
			 0.765351  0.540580 -0.349302
			 0.447064  0.884929 -0.130514
			-0.236135  0.850312 -0.470329
			-0.502752  0.815934 -0.285469
			-0.774472  0.609031 -0.171099
			 0.205721  0.915851  0.344814
			-0.891054  0.401017 -0.212622
			-0.917733  0.387401 -0.087668
			-0.975182 -0.210927 -0.067310
			-0.840998 -0.478169  0.253135
			-0.084386  0.382524  0.920084
			-0.348549  0.117546  0.929891
			-0.848432  0.318172  0.423001
			-0.604807  0.127315  0.786130
			-0.968336  0.238172 -0.074826
			-0.939198  0.324525 -0.112213
			-0.983293  0.181894 -0.007065
			-0.988411  0.111214 -0.103318
			-0.851476  0.498875  0.161593
			-0.669273  0.622596  0.405522
			-0.393260  0.552015  0.735273
			 0.974878  0.187486 -0.120259
			 0.958118  0.286189  0.010258
			 0.784380  0.262361  0.562063
			 0.417288  0.102130  0.903017
			 0.371579  0.048732  0.927121
			 0.159782  0.356976  0.920346
			 0.249135  0.004413  0.968459
			 0.357823  0.021548  0.933541
			 0.449461  0.076841  0.889989
			 0.364992  0.246718  0.897726
			 0.959425 -0.072527 -0.272475
			 0.833342 -0.300749 -0.463779
			-0.518377 -0.599175  0.610143
			-0.443173 -0.698241  0.562190
			-0.624104 -0.680296  0.384306
			-0.638280 -0.526450  0.561649
			-0.411832 -0.874517  0.256153
			 0.696661 -0.601329 -0.391239
			 0.617806 -0.397875 -0.678241
			 0.661825 -0.563657 -0.494246
			 0.724369 -0.672463 -0.151931
			 0.555038 -0.283355 -0.782076
			 0.662191 -0.205594 -0.720579
			 0.610263 -0.195155 -0.767785
			 0.601998 -0.404458 -0.688485
			-0.032296 -0.971039 -0.236727
			 0.280897 -0.761749 -0.583812
			 0.878178 -0.472353  0.075403
			 0.875899 -0.474518  0.087369
			 0.862997 -0.485304  0.140413
			 0.887835 -0.357197 -0.290102
			 0.891774 -0.446231  0.074945
			 0.901603 -0.391704 -0.183522
			 0.780221 -0.273257 -0.562659
			 0.627187 -0.398174 -0.669399
			 0.702150 -0.647165 -0.296922
			 0.057565 -0.263027 -0.963070
			 0.106592 -0.365729 -0.924597
			 0.144747 -0.417111 -0.897255
			-0.564716 -0.354015 -0.745499
			-0.457516 -0.381151 -0.803369
			 0.527755 -0.353745 -0.772230
			-0.017044 -0.539834  0.841599
			-0.240006 -0.294102  0.925149
			-0.626535  0.031411  0.778760
			-0.266814 -0.173433  0.948014
			 0.506382 -0.558760  0.656783
			-0.371965 -0.325732  0.869218
			 0.824629 -0.565050 -0.026556
			 0.854285 -0.519123 -0.026630
			 0.631317 -0.752592  0.187199
			 0.164650 -0.683221  0.711407
			-0.065001  0.170290 -0.983248
			-0.921619  0.201804 -0.331502
			-0.290726  0.455999 -0.841156
			-0.266556  0.564429 -0.781260
			-0.145223  0.606720 -0.781538
			 0.241908  0.471198 -0.848206
			 0.089806  0.828250 -0.553116
			 0.321454  0.742693 -0.587431
			 0.482542  0.641428 -0.596426
			 0.240471  0.917938 -0.315536
			 0.031442  0.949065 -0.313508
			-0.452920  0.756439 -0.471873
			-0.195298  0.830995 -0.520870
			-0.823691 -0.013280  0.566883
			-0.631679 -0.547621  0.548720
			-0.807342  0.103983  0.580849
			 0.422997  0.455929  0.783072
			 0.127134  0.092194  0.987592
			-0.592636 -0.437250  0.676457
			-0.319581 -0.284252  0.903918
			 0.503053  0.682299  0.530477
			 0.651547  0.711872  0.262155
			 0.688505  0.705397  0.168452
			 0.908234  0.403148 -0.112169
			 0.586910  0.771613  0.245255
			 0.597407  0.356750  0.718216
			 0.988585  0.150005  0.014102
			 0.796544  0.075934 -0.599793
			 0.432381  0.343612 -0.833654
			-0.890695  0.192277  0.411937
			-0.859772  0.395963  0.322499
			-0.839830 -0.017484  0.542568
			-0.441963  0.886585 -0.136516
			 0.188005  0.536037 -0.822994
			-0.954849  0.045620  0.293569
			-0.993261  0.114661 -0.016913
			-0.991151 -0.013607  0.132043
			 0.007995 -0.961995  0.272949
			-0.509411 -0.851350  0.125315
			 0.063006 -0.126986  0.989901
			-0.340439 -0.246540  0.907369
			-0.852520  0.084191  0.515869
			-0.649678 -0.249949  0.717944
			-0.880110  0.355958  0.314167
			-0.958954 -0.017567  0.283017
			-0.972886  0.039593  0.227870
			-0.931720  0.163694  0.324196
			-0.191658  0.432457  0.881049
			 0.953695  0.148926 -0.261318
			 0.868397 -0.084115 -0.488683
			 0.931064  0.267548  0.248068
			 0.527713  0.178368  0.830484
			 0.355206  0.106847  0.928662
			 0.296845  0.128175  0.946285
			 0.173903  0.061920  0.982814
			 0.439775  0.086129  0.893968
			 0.390441  0.127971  0.911690
			 0.485852  0.152819  0.860578
			 0.500631  0.253592  0.827683
			 0.295692  0.327080  0.897544
			-0.468077 -0.812294  0.347970
			-0.354189 -0.929762  0.100467
			 0.612356 -0.769528 -0.181239
			 0.620483 -0.270345 -0.736148
			 0.794210 -0.332857 -0.508367
			 0.729480 -0.586772 -0.351509
			 0.599241 -0.264995 -0.755439
			 0.619316 -0.174786 -0.765440
			 0.737224 -0.052929 -0.673572
			 0.718220 -0.076082 -0.691645
			 0.787034 -0.055957 -0.614367
			 0.448749 -0.692381 -0.565007
			 0.249594 -0.765842 -0.592612
			 0.819250 -0.331636 -0.467811
			 0.092216 -0.968042 -0.233218
			-0.123570 -0.988552  0.086574
			 0.857060 -0.487366  0.167099
			 0.867849 -0.494517  0.047870
			 0.845407 -0.516561  0.135837
			 0.893144 -0.445419  0.062419
			 0.910163 -0.409817  0.060442
			 0.561956 -0.463509  0.685102
			 0.899037 -0.420281  0.122870
			 0.761845 -0.498831  0.413231
			 0.359719 -0.311885  0.879392
			 0.948768 -0.313114  0.042412
			 0.921474 -0.383692 -0.060539
			 0.832646 -0.496720 -0.244889
			 0.263231 -0.861772 -0.433657
			 0.126722 -0.631895 -0.764624
			 0.095963 -0.953520  0.285641
			 0.011749 -0.431082  0.902237
			 0.152345 -0.801287  0.578558
			 0.720104 -0.675962  0.156606
			-0.991820  0.064291 -0.110272
			 0.360196 -0.346371 -0.866190
			-0.360388 -0.299591 -0.883383
			-0.333130 -0.433258 -0.837444
			-0.774713 -0.341918 -0.531894
			-0.746692 -0.426031 -0.510831
			-0.362425 -0.599196 -0.713871
			-0.998945  0.008367  0.045153
			-0.996853 -0.055559  0.056536
			 0.011549 -0.384116 -0.923212
			-0.987659  0.077031  0.136365
			-0.869104 -0.186967 -0.457933
			-0.498505 -0.384568  0.776917
			-0.569255 -0.165303  0.805372
			-0.856127  0.205760  0.474035
			-0.791795  0.281811  0.541889
			-0.773577  0.239410  0.586739
			-0.422154 -0.091395  0.901905
			-0.898507  0.095510  0.428442
			-0.352287 -0.101163  0.930408
			 0.516083 -0.771597  0.371883
			-0.447015 -0.376374  0.811493
			 0.161253 -0.398930  0.902692
			-0.829725  0.236579  0.505555
			-0.556263 -0.246502  0.793605
			-0.614534 -0.465052  0.637240
			-0.471361 -0.486722  0.735474
			-0.660086  0.118405  0.741800
			 0.723958  0.441947  0.529686
			 0.625494  0.197660  0.754777
			 0.263256 -0.146956  0.953468
			-0.349308 -0.701267  0.621457
			 0.132633 -0.516329  0.846057
			 0.713011  0.621609  0.324371
			 0.715834  0.633838  0.292971
			 0.787940  0.494273  0.367212
			 0.971778  0.221824  0.080258
			 0.967673 -0.251590  0.017647
			 0.832341  0.430720  0.348839
			 0.365396 -0.307270  0.878676
			 0.849169 -0.207946  0.485459
			 0.947774 -0.204614 -0.244657
			 0.602807 -0.165918 -0.780445
			 0.274180  0.190254 -0.942671
			-0.449732 -0.599979  0.661639
			-0.181454 -0.626393  0.758094
			-0.560089 -0.355747  0.748161
			-0.390435 -0.669107  0.632342
			-0.863866  0.186495  0.467927
			-0.201015 -0.618851  0.759352
			-0.718259 -0.426843  0.549462
			-0.414683 -0.613708  0.671864
			-0.472799  0.878256  0.071609
			-0.344596  0.936427 -0.066017
			-0.822050  0.338096  0.458177
			-0.073404  0.724375 -0.685487
			-0.297112  0.938976 -0.173347
			-0.343480 -0.867734  0.359248
			-0.197453 -0.871087  0.449688
			 0.300582 -0.929224  0.214926
			 0.095995 -0.420949  0.901991
			-0.512205 -0.483183  0.710056
			-0.830068 -0.203506  0.519203
			-0.640601  0.286538  0.712409
			-0.899648 -0.147217  0.411048
			-0.889088 -0.161748  0.428206
			-0.695557 -0.126608  0.707228
			-0.770781  0.054827  0.634736
			-0.096250  0.313504  0.944696
			 0.926196  0.094538 -0.364999
			 0.781611  0.215627  0.585311
			 0.279505  0.098962  0.955031
			 0.455922  0.202512  0.866674
			 0.387976  0.249438  0.887274
			 0.264195  0.220417  0.938945
			 0.473660  0.285564  0.833127
			 0.511041  0.277373  0.813573
			 0.295807  0.285928  0.911451
			-0.231762 -0.920510  0.314561
			 0.682834 -0.729332 -0.042561
			 0.697346 -0.238122 -0.676022
			 0.729203  0.202796  0.653557
			 0.912115 -0.402292 -0.078787
			 0.944099  0.050875  0.325713
			 0.932377 -0.133685 -0.335858
			 0.868799 -0.492746 -0.048882
			 0.910602 -0.028433 -0.412306
			 0.600860 -0.797574 -0.053323
			 0.205511 -0.911931  0.355172
			 0.847922 -0.456842  0.268932
			 0.868944 -0.452580  0.200270
			-0.360990 -0.061219  0.930558
			 0.499685 -0.483500  0.718708
			-0.549038  0.099575  0.829844
			 0.301953 -0.472871  0.827779
			 0.557147 -0.551782  0.620583
			-0.684197  0.145935  0.714547
			-0.347610 -0.101974  0.932077
			-0.534357 -0.059439  0.843166
			 0.639816 -0.371311  0.672877
			 0.744524 -0.570147  0.347299
			-0.257491 -0.961433  0.096668
			-0.640316 -0.768036  0.010792
			-0.592460 -0.741367 -0.315223
			-0.614690 -0.613885  0.495278
			-0.301629 -0.628505  0.716939
			-0.639253  0.071819  0.765636
			-0.663522  0.241224  0.708202
			 0.364581 -0.558295  0.745243
			-0.371597 -0.281501  0.884688
			-0.667554 -0.277174 -0.691048
			-0.989527 -0.095030  0.108656
			-0.958825 -0.274895  0.071333
			-0.752511 -0.537157 -0.381037
			-0.881459  0.161909  0.443638
			-0.720518 -0.035902  0.692506
			-0.878421  0.012579  0.477722
			-0.866215  0.124679  0.483866
			-0.768171  0.196877  0.609223
			-0.847390  0.257101  0.464575
			-0.699712  0.207805  0.683535
			-0.576733  0.059287  0.814779
			 0.816881 -0.099580  0.568145
			 0.545045  0.069985  0.835481
			-0.174589 -0.028838  0.984219
			 0.120227  0.125513  0.984780
			 0.351098  0.350751  0.868161
			-0.675003 -0.108505  0.729793
			-0.632068 -0.556570  0.539185
			 0.583085  0.001169  0.812410
			 0.713703  0.086622  0.695071
			 0.761969  0.438359  0.476702
			 0.121812 -0.821689  0.556767
			 0.518468 -0.317073  0.794138
			 0.587603 -0.550626  0.592904
			 0.816108  0.243651  0.524024
			 0.947158  0.109906  0.301350
			 0.694198 -0.578641  0.428094
			 0.884373 -0.320984  0.338901
			 0.435354 -0.544903  0.716622
			 0.959955 -0.238880  0.146363
			 0.715454 -0.516417  0.470573
			 0.699175 -0.560574 -0.443747
			 0.889438 -0.455307  0.039941
			 0.407382 -0.153066 -0.900339
			 0.494378 -0.410328 -0.766304
			 0.097739  0.021331 -0.994984
			 0.332282 -0.364157 -0.870045
			 0.102534 -0.865644  0.490048
			 0.059734 -0.753600  0.654614
			-0.617049 -0.487865  0.617445
			 0.215480 -0.694390  0.686579
			-0.202926 -0.754065  0.624665
			-0.644416  0.356570  0.676451
			-0.328147  0.944618  0.004119
			-0.324055  0.945840  0.019338
			-0.347584  0.799563  0.489780
			-0.299055  0.949040 -0.099447
			-0.593004 -0.250738  0.765164
			-0.220304  0.849048 -0.480191
			-0.293144  0.940423 -0.172250
			-0.720002 -0.238319  0.651767
			-0.305811  0.187907  0.933365
			-0.375157  0.036485  0.926243
			 0.794044  0.186080  0.578678
			 0.467611  0.249861  0.847885
			 0.295851  0.321057  0.899664
			 0.373095  0.363291  0.853709
			 0.486205  0.284915  0.826092
			 0.284409  0.336048  0.897877
			 0.234030  0.294944  0.926411
			 0.503294  0.305329  0.808374
			 0.537524  0.281287  0.794950
			 0.132060  0.279150  0.951123
			 0.493786  0.332102  0.803669
			 0.432826  0.323546  0.841415
			 0.303142  0.539753  0.785348
			 0.303524  0.426561  0.852009
			 0.324397  0.561939  0.760915
			 0.684678  0.276868  0.674211
			 0.932780 -0.174874  0.315182
			 0.641150 -0.576787  0.506205
			-0.015824 -0.407849  0.912912
			-0.615229  0.048918  0.786829
			 0.299641 -0.423649  0.854831
			-0.884515 -0.262158  0.385885
			-0.641184 -0.358467  0.678517
			 0.357592  0.598937  0.716521
			 0.358699  0.588125  0.724876
			 0.350455  0.390043  0.851498
			 0.181803  0.282211  0.941968
			 0.400209  0.572664  0.715464
			 0.359054  0.619902  0.697712
			 0.787694 -0.180042  0.589172
			 0.874512 -0.150999  0.460900
			 0.505002 -0.735579  0.451549
			 0.554499 -0.729824 -0.399859
			 0.522549 -0.851819 -0.036704
			 0.689406 -0.722064  0.057819
			 0.476727 -0.581521 -0.659215
			-0.114522  0.008987 -0.993380
			 0.229576 -0.685765 -0.690667
			 0.267028 -0.872709  0.408747
			-0.178012 -0.684222  0.707214
			-0.044431 -0.425425  0.903902
			-0.312190  0.948745 -0.049196
			-0.324672  0.945803  0.006647
			-0.279362  0.960060 -0.015520
			-0.279213  0.959604 -0.034645
			 0.195128 -0.314789  0.928888
			-0.169329  0.835720  0.522398
			-0.328454  0.944388 -0.015817
			-0.262708  0.954542 -0.140832
			-0.268376  0.956960 -0.110460
			-0.248449  0.836971 -0.487599
			 0.382425  0.453519  0.805029
			 0.514264  0.308569  0.800199
			 0.548221  0.300725  0.780396
			 0.473994  0.449363  0.757234
			 0.303230  0.597755  0.742119
			 0.327957  0.651508  0.684092
			 0.382011  0.620814  0.684586
			 0.541645 -0.771814 -0.333053
			 0.441121 -0.895880 -0.053023
			 0.441289 -0.878986  0.180685
			 0.417060 -0.818328 -0.395475
			 0.095186 -0.748706 -0.656033
			-0.283952  0.836658 -0.468374
			-0.178134  0.601776 -0.778546
			-0.118100  0.166753 -0.978900
			-0.010721 -0.252970 -0.967415
			 0.248187 -0.944319 -0.216021
			 0.347132 -0.833002  0.430822
			 0.358572 -0.807210  0.468870
			-0.340230  0.939193 -0.046471
			-0.299706  0.953860 -0.018076
			 0.395776 -0.853665  0.338553
			 0.371380 -0.369974  0.851584
			-0.297241  0.954612  0.019039
			-0.168109  0.981397  0.092730
			-0.358363  0.933538 -0.009100
			 0.197767  0.621524  0.758021
			-0.296742  0.941870 -0.157557
			-0.344885  0.930284 -0.125004
			 0.348803  0.588299  0.729549
			 0.431958 -0.886907 -0.163730
			 0.399158 -0.915539 -0.049616
			 0.394897 -0.845029  0.360530
			 0.388950 -0.877776  0.279692
			 0.407745 -0.907973  0.096588
			 0.382770 -0.852205  0.356698
			 0.334454 -0.939092 -0.079031
			 0.207144 -0.592122 -0.778770
			 0.287177 -0.947471 -0.140811
			-0.192659  0.817459 -0.542810
			-0.315776  0.918980 -0.236139
			-0.410872  0.898081 -0.156954
			-0.414946  0.897212 -0.151096
			-0.022172  0.512115 -0.858631
			-0.163821  0.753011 -0.637289
			 0.324840 -0.945722 -0.009425
			 0.395293 -0.891119  0.222821
			 0.350590 -0.878776  0.323789
			 0.365831 -0.908216  0.203252
			 0.401596 -0.911809  0.085587
			 0.367484 -0.926485  0.081125
			 0.382992 -0.917951  0.103354
			 0.375745 -0.906264  0.193650
			 0.506832 -0.011046  0.861974
			 0.471028 -0.698923  0.538182
			-0.254080  0.966700  0.030565
			-0.193437  0.981102  0.004485
			 0.175987  0.983765 -0.035127
			-0.099181  0.991879 -0.079625
			 0.343373  0.585529  0.734337
			-0.308285  0.951005 -0.023469
			 0.383151 -0.923245 -0.028516
			 0.427422 -0.115407 -0.896656
			 0.375810 -0.841022 -0.389164
			 0.317494 -0.922922 -0.217746
			 0.328023 -0.942289  0.067029
			 0.310848 -0.947110 -0.079730
			-0.242285  0.853462 -0.461412
			-0.245573  0.940195 -0.236066
			 0.090273  0.709009 -0.699398
			-0.140247  0.801805 -0.580896
			-0.145531  0.880019 -0.452092
			-0.069558  0.915354 -0.396597
			 0.425309 -0.868167  0.255729
			 0.304277 -0.942620  0.137416
			 0.707388 -0.254972  0.659235
			-0.205327  0.978560 -0.016142
			 0.159812  0.908316 -0.386551
			 0.502389  0.779811  0.373497
			 0.648133  0.704432 -0.289309
			 0.773565  0.614851  0.153476
			-0.150469  0.973567 -0.171830
			 0.784338  0.218827  0.580456
			 0.377604  0.623614 -0.684486
			 0.536824 -0.791559 -0.291984
			 0.748640 -0.206452 -0.630013
			 0.578990  0.110653 -0.807791
			 0.331486 -0.943106 -0.025872
			 0.916641 -0.210655  0.339696
			 0.441578 -0.870707  0.216512
			 0.910207 -0.411742  0.044631
			 0.353753 -0.924550  0.141654
			 0.657348  0.410738 -0.631813
			 0.858841  0.154586 -0.488359
			 0.460790 -0.883786  0.081206
			 0.799426 -0.523911 -0.293998
		</DataArray>
	</PointData>
	<Points>
		<DataArray type="Float32" NumberOfComponents="3" format="ascii">
			-0.012557 -0.018863 -0.037452
			-0.015468 -0.019678 -0.036495
			-0.014105 -0.017847 -0.036090
			-0.010578 -0.021260 -0.039177
			-0.013035 -0.022609 -0.039206
			-0.012225 -0.015485 -0.035161
			-0.007992 -0.020099 -0.038893
			-0.015891 -0.019085 -0.035338
			-0.014931 -0.024516 -0.038845
			-0.016241 -0.021371 -0.036483
			-0.013520 -0.014663 -0.032700
			-0.008364 -0.024348 -0.038000
			-0.010742 -0.027983 -0.037557
			-0.005568 -0.018893 -0.038257
			-0.007478 -0.012945 -0.033232
			-0.009377 -0.012330 -0.030738
			-0.005951 -0.023568 -0.037146
			-0.016957 -0.020884 -0.035014
			-0.015604 -0.016343 -0.032275
			-0.016610 -0.026635 -0.038345
			-0.012875 -0.027493 -0.037844
			-0.017181 -0.022275 -0.035705
			-0.014504 -0.014456 -0.030855
			-0.012994 -0.013145 -0.029661
			-0.006597 -0.027453 -0.036301
			-0.011621 -0.033760 -0.033204
			-0.018825 -0.036931 -0.033263
			-0.008038 -0.029707 -0.035836
			-0.014160 -0.028209 -0.037880
			-0.003564 -0.022320 -0.036324
			-0.002999 -0.017586 -0.037343
			-0.002134 -0.013953 -0.033718
			-0.001297 -0.011186 -0.030063
			-0.006228 -0.011476 -0.028149
			-0.002883 -0.010767 -0.026671
			-0.011002 -0.012112 -0.028114
			-0.008056 -0.011328 -0.025372
			-0.001105 -0.024752 -0.034174
			-0.017594 -0.022818 -0.033866
			-0.018292 -0.025318 -0.034736
			-0.016912 -0.020440 -0.032058
			-0.015887 -0.018198 -0.030258
			-0.017694 -0.031779 -0.036170
			-0.019512 -0.032467 -0.035988
			-0.019276 -0.029989 -0.037122
			-0.018791 -0.026866 -0.035902
			-0.018492 -0.027969 -0.036968
			-0.019861 -0.027783 -0.033767
			-0.014417 -0.015955 -0.028197
			-0.013985 -0.017052 -0.025145
			-0.009519 -0.014424 -0.021507
			-0.011828 -0.015577 -0.023411
			-0.005759 -0.029227 -0.034690
			-0.014695 -0.036938 -0.031137
			-0.007280 -0.031431 -0.033585
			-0.009336 -0.034158 -0.031487
			-0.025457 -0.045078 -0.029394
			-0.022008 -0.038230 -0.033202
			-0.016903 -0.039889 -0.028800
			-0.018155 -0.033862 -0.035202
			-0.020623 -0.035229 -0.034740
			 0.002486 -0.019088 -0.034031
			 0.003210 -0.015037 -0.034282
			 0.000886 -0.012834 -0.032030
			-0.001280 -0.010934 -0.023894
			 0.001705 -0.011634 -0.025750
			 0.013039 -0.016689 -0.024321
			-0.004998 -0.012448 -0.018883
			-0.001014 -0.011904 -0.015924
			 0.000948 -0.010677 -0.017909