<?xml version="1.0"?>
<VTKFile type="PolyData" version="0.1" byte_order="LittleEndian" compressor="vtkZLibDataCompressor">
	<PolyData>
		<Piece NumberOfPoints="73" NumberOfVerts="0" NumberOfLines="0" NumberOfStrips="0" NumberOfPolys="142">
		<PointData Normals="Normals">
		<DataArray type="Float32" Name="Normals" NumberOfComponents="3" format="ascii">
			-0.718028 -0.373592  0.587252
			-0.987479 -0.049826 -0.149676
			-0.756283 -0.628058  0.183248
			-0.500405 -0.527912  0.686225
			-0.928360 -0.158736  0.336082
			 0.151268 -0.161676  0.975182
			 0.005035 -0.480153  0.877170
			-0.580456 -0.560503  0.590684
			-0.780185 -0.424034 -0.459899
			-0.908651  0.417036 -0.020858
			-0.501666  0.578789 -0.642911
			-0.636446  0.164726 -0.753526
			-0.294811 -0.889068  0.350208
			-0.622767 -0.764515 -0.166367
			-0.540409 -0.838664  0.067830
			-0.402198 -0.900425  0.165744
			 0.127418 -0.231226  0.964520
			 0.049079 -0.520769  0.852286
			-0.857316  0.311268  0.410026
			-0.597171 -0.624735  0.503083
			-0.788272 -0.155731  0.595294
			 0.627851  0.119577  0.769093
			 0.913113 -0.183486  0.364084
			 0.249126 -0.766721  0.591672
			-0.092773 -0.942427  0.321285
			-0.120524 -0.362296 -0.924238
			-0.140162 -0.873543 -0.466130
			-0.462883  0.766394 -0.445398
			-0.764135  0.640343 -0.077835
			-0.742212  0.627300  0.235830
			-0.278339  0.424227 -0.861719
			 0.119219  0.586429 -0.801179
			 0.179439  0.603260 -0.777096
			 0.099929  0.531701 -0.841016
			-0.329818 -0.006263 -0.944024
			 0.057191 -0.994472 -0.088061
			 0.260803 -0.948818  0.178116
			 0.502955 -0.630174  0.591538
			-0.232925 -0.962474 -0.139250
			-0.579837  0.175253  0.795660
			-0.511070  0.708199  0.487096
			-0.367783 -0.391236  0.843605
			-0.069315 -0.918052  0.390353
			 0.919477 -0.191909  0.343121
			 0.938425  0.128651  0.320637
			 0.912678  0.077332 -0.401297
			 0.969164 -0.177033 -0.171407
			 0.915639 -0.329132 -0.230819
			 0.650875 -0.753296  0.094382
			 0.579332 -0.612804 -0.537444
			 0.210071  0.048465 -0.976484
			 0.574556 -0.147610 -0.805045
			 0.333826 -0.876439 -0.347009
			-0.535824  0.838553 -0.098601
			 0.601988  0.612274 -0.512573
			-0.094390  0.977614 -0.188045
			-0.378425  0.909687  0.171067
			 0.084580  0.322474 -0.942792
			 0.690761  0.269758 -0.670880
			 0.565083  0.398481 -0.722422
			 0.588973  0.293777 -0.752865
			 0.600027 -0.790784 -0.120949
			 0.246443 -0.295763  0.922925
			 0.100009  0.247683  0.963665
			 0.176607  0.719624  0.671529
			-0.047956  0.963892  0.261939
			 0.525276 -0.752392  0.397481
			 0.845559  0.005589 -0.533852
			 0.973008 -0.227305 -0.039853
			 0.714360  0.692691  0.099343
			 0.871582 -0.034064  0.489064
			 0.621993  0.651892  0.433776
			 0.902763  0.302538  0.305761
		</DataArray>
	</PointData>
	<Points>
		<DataArray type="Float32" NumberOfComponents="3" format="ascii">
			-0.009491 -0.009290 -0.008409
			-0.010032 -0.011440 -0.017199
			-0.007679 -0.014888 -0.012198
			-0.006256 -0.014409 -0.008465
			-0.010304 -0.006042 -0.008476
			-0.005647 -0.011193 -0.007338
			-0.006249 -0.009197 -0.006477
			-0.007792 -0.006734 -0.006118
			-0.009209 -0.012774 -0.018990
			-0.009608 -0.003219 -0.008522
			-0.009022 -0.004904 -0.014871
			-0.008559 -0.010603 -0.019510
			-0.004358 -0.016987 -0.010230
			-0.007631 -0.015033 -0.017904
			-0.005570 -0.016901 -0.012706
			-0.004585 -0.017121 -0.011246
			-0.004006 -0.015354 -0.008170
			-0.003413 -0.016292 -0.008565
			-0.007675 -0.001982 -0.003042
			-0.007427 -0.005554 -0.003176
			-0.007926 -0.004351 -0.002874
			-0.001666 -0.013828 -0.009552
			-0.000065 -0.005867 -0.012949
			-0.006053 -0.007829 -0.005424
			-0.005677 -0.006549 -0.003135
			-0.004718 -0.014214 -0.021614
			-0.005206 -0.015742 -0.019712
			-0.005404  0.000039 -0.012475
			-0.007502  0.000058 -0.006208
			-0.006855  0.000611 -0.004180
			-0.005270 -0.010847 -0.021308
			-0.000883  0.000801 -0.013188
			-0.004431 -0.010212 -0.020754
			-0.003306 -0.004762 -0.016230
			-0.004664 -0.012864 -0.021759
			-0.003295 -0.017593 -0.012944
			-0.002150 -0.017489 -0.011006
			-0.001458 -0.016456 -0.009369
			-0.004657 -0.017254 -0.014231
			-0.004604 -0.000817  0.000807
			-0.003818  0.001747 -0.000793
			-0.004188 -0.003894  0.000611
			-0.004779 -0.006340 -0.001310
			 0.000039 -0.015470 -0.010812
			-0.000152 -0.012892 -0.012256
			-0.000838 -0.007878 -0.015907
			 0.001051 -0.001320 -0.010576
			 0.000100 -0.015191 -0.013799
			-0.003846 -0.005330 -0.004887
			-0.003384 -0.014449 -0.020631
			-0.004181 -0.012441 -0.021804
			-0.003760 -0.013173 -0.021654
			-0.003487 -0.017108 -0.014412
			-0.004120  0.003264 -0.006937
			 0.001044  0.003654 -0.008789
			-0.000884  0.004358 -0.007097
			-0.002253  0.004019 -0.005105
			-0.004592 -0.011520 -0.021715
			-0.000459 -0.001468 -0.013819
			-0.002209 -0.006869 -0.017263
			-0.003170 -0.011631 -0.020976
			-0.000858 -0.016548 -0.012439
			-0.002640 -0.002192  0.001303
			-0.001943  0.000426  0.001461
			-0.000757  0.002341  0.000302
			-0.000242  0.004181 -0.003882
			-0.003240 -0.005749 -0.000741
			-0.001592 -0.012172 -0.019069
			 0.002652  0.000424 -0.006137
			 0.002004  0.003846 -0.006249
			 0.001949  0.000449 -0.002624
			-0.000040  0.003241 -0.001540
			 0.001946  0.002109 -0.004869
		</DataArray>
	</Points>
			<Polys>
				<DataArray type="Int32" Name="connectivity" format="ascii">
					0 1 2 
					2 3 0 
					4 1 0 
					5 0 3 
					0 5 6 
					6 7 0 
					0 7 4 
					8 2 1 
					1 9 10 
					4 9 1 
					1 10 11 
					11 8 1 
					12 3 2 
					13 14 2 
					13 2 8 
					2 15 12 
					2 14 15 
					3 16 5 
					3 17 16 
					17 3 12 
					4 18 9 
					7 19 4 
					20 4 19 
					4 20 18 
					21 5 16 
					22 6 5 
					22 5 21 
					7 6 23 
					22 23 6 
					24 7 23 
					19 7 24 
					25 26 8 
					8 11 25 
					8 26 13 
					27 10 9 
					28 27 9 
					9 29 28 
					29 9 18 
					11 10 30 
					31 10 27 
					30 10 32 
					33 32 10 
					10 31 33 
					11 34 25 
					11 30 34 
					12 35 36 
					12 15 35 
					37 17 12 
					12 36 37 
					13 38 14 
					38 13 26 
					14 38 15 
					38 35 15 
					21 16 17 
					21 17 37 
					20 39 18 
					18 40 29 
					39 40 18 
					41 19 42 
					42 19 24 
					19 41 20 
					39 20 41 
					43 21 37 
					43 44 21 
					21 44 22 
					45 46 22 
					47 45 22 
					47 22 44 
					23 22 48 
					22 46 48 
					48 24 23 
					48 42 24 
					25 49 26 
					50 51 25 
					34 50 25 
					25 51 49 
					49 52 26 
					38 26 52 
					28 53 27 
					54 31 27 
					54 27 55 
					55 27 53 
					29 53 28 
					56 53 29 
					29 40 56 
					30 57 34 
					32 57 30 
					58 33 31 
					58 31 54 
					33 59 32 
					32 59 60 
					60 57 32 
					33 58 59 
					57 50 34 
					35 61 36 
					38 52 35 
					35 52 61 
					37 36 61 
					37 61 43 
					39 41 62 
					62 63 39 
					39 63 40 
					64 65 40 
					65 56 40 
					40 63 64 
					41 42 66 
					66 62 41 
					48 66 42 
					43 61 47 
					47 44 43 
					45 59 58 
					58 46 45 
					59 45 67 
					67 45 47 
					46 58 54 
					54 68 46 
					46 68 48 
					52 47 61 
					47 52 49 
					49 67 47 
					48 68 66 
					67 49 51 
					51 50 60 
					50 57 60 
					51 60 67 
					56 55 53 
					68 54 69 
					55 69 54 
					55 65 69 
					65 55 56 
					60 59 67 
					70 63 62 
					70 62 66 
					70 64 63 
					64 71 65 
					71 64 70 
					65 71 69 
					70 66 68 
					72 68 69 
					70 68 72 
					72 69 71 
					70 72 71 
				</DataArray>
				<DataArray type="Int32" Name="offsets" format="ascii">
					3 6 9 12 15 18 21 24 27 30 33 36 39 42 45 48 51 54 57 60 63 66 69 72 75 78 81 84 87 90 93 96 99 102 105 108 111 114 117 120 123 126 129 132 135 138 141 144 147 150 153 156 159 162 165 168 171 174 177 180 183 186 189 192 195 198 201 204 207 210 213 216 219 222 225 228 231 234 237 240 243 246 249 252 255 258 261 264 267 270 273 276 279 282 285 288 291 294 297 300 303 306 309 312 315 318 321 324 327 330 333 336 339 342 345 348 351 354 357 360 363 366 369 372 375 378 381 384 387 390 393 396 399 402 405 408 411 414 417 420 423 426 
				</DataArray>
			</Polys>
		</Piece>
	</PolyData>
</VTKFile>
