<?xml version="1.0"?>
<VTKFile type="PolyData" version="0.1" byte_order="LittleEndian" compressor="vtkZLibDataCompressor">
	<PolyData>
		<Piece NumberOfPoints="1851" NumberOfVerts="0" NumberOfLines="0" NumberOfStrips="0" NumberOfPolys="3698">
		<PointData Normals="Normals">
		<DataArray type="Float32" Name="Normals" NumberOfComponents="3" format="ascii">
			 0.088321 -0.064664  0.993991
			 0.237567  0.108690  0.965271
			-0.011250  0.048595  0.998755
			-0.136566 -0.127669  0.982370
			 0.361196  0.072106  0.929698
			-0.204328 -0.186636  0.960946
			-0.189055 -0.179435  0.965433
			 0.208745  0.015927  0.977840
			-0.020931 -0.134968  0.990629
			 0.065696  0.213293  0.974777
			 0.368596  0.242629  0.897367
			 0.180452  0.287467  0.940638
			-0.303884  0.178213  0.935892
			-0.331194  0.000531  0.943562
			-0.410347 -0.172514  0.895463
			 0.463876  0.206076  0.861598
			 0.380004  0.037220  0.924236
			 0.370828  0.119936  0.920925
			 0.447163  0.172988  0.877565
			-0.478953 -0.226445  0.848131
			-0.445437 -0.264802  0.855258
			-0.250352 -0.202537  0.946733
			-0.003416 -0.068806  0.997624
			 0.244177  0.091636  0.965391
			 0.321253  0.116276  0.939828
			-0.064980  0.295448  0.953147
			 0.524064  0.231465  0.819623
			 0.437697  0.309865  0.844041
			 0.391058  0.350684  0.850937
			 0.265379  0.325065  0.907693
			 0.101456  0.327713  0.939314
			-0.638135  0.114003  0.761438
			-0.546298  0.071397  0.834542
			-0.564095  0.173474  0.807282
			-0.304817  0.252537  0.918320
			-0.584989 -0.042242  0.809941
			-0.670791 -0.213719  0.710186
			 0.558726  0.230424  0.796699
			 0.269299  0.200816  0.941887
			 0.473881  0.217346  0.853345
			 0.298289  0.239058  0.924053
			 0.567472  0.197654  0.799317
			 0.435109  0.231808  0.870026
			 0.468616  0.210741  0.857897
			-0.660146 -0.215632  0.719521
			-0.655412 -0.243332  0.715000
			-0.495169 -0.259272  0.829208
			-0.274541 -0.223165  0.935321
			-0.045313 -0.080789  0.995701
			 0.087368  0.094683  0.991666
			-0.152740  0.327920  0.932276
			 0.516653  0.222845  0.826686
			 0.423219  0.226173  0.877344
			 0.460964  0.431449  0.775477
			 0.472679  0.237994  0.848489
			 0.517044  0.333769  0.788203
			 0.360327  0.439416  0.822847
			 0.267990  0.357899  0.894477
			 0.075524  0.433315  0.898073
			-0.802732 -0.030662  0.595552
			-0.826596  0.066446  0.558859
			-0.730219  0.142154  0.668260
			-0.424017  0.274337  0.863104
			-0.807262 -0.185731  0.560207
			 0.211558  0.191205  0.958480
			 0.427747  0.192620  0.883137
			 0.475395  0.225592  0.850357
			 0.422030  0.230511  0.876787
			 0.483291  0.244427  0.840646
			 0.570650  0.191422  0.798571
			 0.452706  0.215731  0.865169
			 0.496293  0.234049  0.836011
			-0.645754 -0.212656  0.733335
			-0.862100 -0.185088  0.471727
			-0.527404 -0.298211  0.795560
			-0.083876 -0.045490  0.995437
			-0.350760 -0.236056  0.906226
			-0.485635 -0.336525  0.806790
			-0.137160 -0.173587  0.975220
			 0.001272  0.055719  0.998446
			 0.010558 -0.093306  0.995582
			 0.101426 -0.030035  0.994390
			-0.534635  0.266298  0.802029
			-0.409620  0.337975  0.847340
			-0.193585  0.384817  0.902464
			 0.378937  0.517647  0.767104
			 0.464374  0.522554  0.715048
			 0.518277  0.380437  0.765935
			 0.548772  0.409655  0.728719
			 0.536800  0.270704  0.799103
			 0.631457  0.322195  0.705303
			 0.263229  0.519424  0.812963
			-0.204027  0.397826  0.894487
			-0.009810  0.545647  0.837958
			 0.161364  0.526199  0.834911
			-0.221376  0.429277  0.875622
			-0.929870 -0.093476  0.355814
			-0.956239 -0.040727  0.289739
			-0.927271  0.040318  0.372214
			-0.825329  0.128718  0.549785
			-0.610950  0.221323  0.760103
			-0.727906  0.197510  0.656615
			-0.917586 -0.174883  0.357004
			 0.219067 -0.020750  0.975489
			 0.305749  0.036757  0.951402
			 0.579880  0.075065  0.811236
			 0.402407 -0.117216  0.907926
			 0.496729 -0.085224  0.863711
			 0.571479  0.075483  0.817138
			 0.617472  0.060565  0.784258
			 0.497630  0.239437  0.833688
			 0.508747  0.250120  0.823782
			 0.506174  0.258671  0.822726
			 0.662470  0.183536  0.726256
			-0.807516 -0.257753  0.530548
			-0.649311 -0.330475  0.684968
			-0.978982 -0.134377  0.153416
			-0.949844 -0.218262  0.223960
			-0.912428 -0.288937  0.289810
			-0.592325 -0.344200  0.728476
			-0.459126 -0.322150  0.827902
			-0.337278 -0.252166  0.907004
			-0.697621 -0.400988  0.593745
			-0.602258 -0.496480  0.625134
			-0.492127 -0.445251  0.748039
			-0.064446 -0.303992  0.950492
			-0.288090 -0.365560  0.885082
			 0.010960 -0.263873  0.964495
			 0.221872 -0.211207  0.951927
			-0.820915  0.123011  0.557644
			-0.719883  0.227870  0.655625
			-0.301937  0.417376  0.857106
			-0.562233  0.388547  0.730017
			 0.392500  0.553466  0.734588
			 0.330416  0.560011  0.759745
			 0.438783  0.587628  0.679826
			 0.545889  0.527185  0.651215
			 0.613573  0.398067  0.681961
			 0.712323  0.389676  0.583737
			 0.575402  0.318896  0.753139
			 0.605073  0.321359  0.728433
			 0.548392  0.280968  0.787606
			 0.660847  0.284803  0.694384
			 0.694069  0.299405  0.654694
			 0.125150  0.575894  0.807888
			 0.246847  0.593338  0.766170
			-0.302652  0.514520  0.802291
			-0.122972  0.604045  0.787406
			-0.457348  0.421739  0.782923
			-0.995154 -0.071874  0.067105
			-0.994444 -0.099211  0.035203
			-0.975948 -0.059209  0.209811
			-0.937676  0.021763  0.346827
			-0.992057 -0.048800  0.115937
			 0.638216 -0.181371  0.748188
			 0.644685 -0.027171  0.763965
			 0.448599 -0.273431  0.850878
			 0.308172 -0.411946  0.857514
			 0.600957 -0.226206  0.766604
			 0.873865  0.144792  0.464107
			 0.649160  0.219338  0.728342
			 0.880704  0.161172  0.445404
			 0.589463  0.186053  0.786077
			-0.837116 -0.366422  0.406167
			-0.886837 -0.346821  0.305344
			-0.745269 -0.389297  0.541316
			-0.962704 -0.239618 -0.125634
			-0.969902 -0.240813 -0.036042
			-0.943936 -0.329215  0.024520
			-0.923009 -0.381235  0.052098
			-0.508705 -0.428040  0.746995
			-0.423949 -0.365264  0.828764
			-0.781215 -0.551736  0.292046
			-0.823135 -0.498841  0.271306
			-0.685771 -0.607131  0.401385
			-0.622794 -0.569145  0.536844
			-0.108413 -0.444848  0.889020
			-0.476184 -0.488159  0.731403
			-0.299123 -0.440563  0.846422
			 0.109320 -0.407240  0.906755
			-0.887292  0.087576  0.452817
			-0.731950  0.264295  0.628011
			 0.313976  0.638109  0.703019
			 0.352821  0.663172  0.660091
			 0.474595  0.652377  0.590901
			 0.419364  0.716292  0.557727
			 0.609313  0.434188  0.663489
			 0.716396  0.398738  0.572525
			 0.561973  0.608361  0.560432
			 0.942108  0.187107  0.278251
			 0.734706  0.326248  0.594786
			 0.939618  0.164844  0.299906
			 0.594170  0.286380  0.751630
			 0.636718  0.266252  0.723672
			 0.610481  0.283037  0.739732
			 0.568154  0.369326  0.735390
			 0.650208  0.237159  0.721793
			-0.106829  0.650984  0.751537
			 0.150469  0.672916  0.724253
			 0.215223  0.682325  0.698650
			-0.499590  0.385912  0.775553
			-0.400488  0.597255  0.694907
			-0.552083  0.464293  0.692557
			-0.989980 -0.133582 -0.045768
			-0.999215 -0.036258 -0.015955
			-0.994393 -0.105196 -0.010814
			-0.970748 -0.196346 -0.138189
			-0.975489 -0.036841  0.216944
			-0.971552 -0.232877  0.043074
			-0.990184 -0.099711  0.097945
			-0.971616 -0.132046  0.196279
			 0.590698 -0.379809  0.711913
			 0.654413 -0.292442  0.697296
			 0.662635 -0.186090  0.725455
			 0.659003  0.019247  0.751894
			 0.697274 -0.102919  0.709378
			 0.461893 -0.445046  0.767195
			 0.425923 -0.566693  0.705300
			 0.230808 -0.517014  0.824272
			 0.973791  0.061896  0.218859
			 0.553178  0.250180  0.794610
			 0.623340  0.176651  0.761736
			-0.860420 -0.457753  0.223917
			-0.892298 -0.435127  0.120289
			-0.911179 -0.357343 -0.205085
			-0.845958 -0.356849 -0.396249
			-0.858842 -0.471388 -0.200460
			-0.654615 -0.539958  0.529079
			-0.656329 -0.564063  0.501064
			-0.726712 -0.630107  0.273594
			-0.828071 -0.560003 -0.026379
			-0.782576 -0.622303  0.017705
			-0.739731 -0.632920  0.228495
			-0.442127 -0.469793  0.764080
			 0.029232 -0.586398  0.809495
			-0.325908 -0.556806  0.764036
			 0.065228 -0.477849  0.876017
			-0.564510 -0.545617  0.619380
			-0.969501  0.025703  0.243736
			-0.865690  0.119333  0.486150
			-0.671364  0.345838  0.655490
			-0.852021  0.260249  0.454236
			 0.172049  0.782925  0.597853
			 0.333091  0.760648  0.557193
			 0.239981  0.789052  0.565515
			 0.459407  0.766695  0.448469
			 0.397809  0.789420  0.467508
			 0.427787  0.796892  0.426568
			 0.901361  0.222263  0.371683
			 0.646284  0.419731  0.637293
			 0.528328  0.667630  0.524537
			 0.611640  0.544647  0.573808
			 0.657361  0.374094  0.654164
			 0.667793  0.286269  0.687097
			 0.644386  0.295148  0.705446
			 0.604200  0.406584  0.685297
			 0.526311  0.228074  0.819133
			 0.671771  0.295331  0.679340
			 0.541836  0.476792  0.692159
			 0.587318  0.433496  0.683475
			-0.474928  0.551009  0.686172
			-0.092050  0.697477  0.710671
			 0.052751  0.748762  0.660736
			-0.674921  0.457403  0.579020
			-0.920805 -0.306019 -0.241806
			-0.941759 -0.276441  0.191493
			-0.902348 -0.427505 -0.054841
			-0.861278 -0.445297 -0.244769
			-0.986283 -0.045232  0.158747
			-0.981475 -0.154797  0.112893
			-0.992033 -0.002134  0.125963
			 0.601654 -0.486694  0.633357
			 0.535076 -0.521626  0.664530
			 0.610757 -0.483862  0.626780
			 0.670574 -0.387167  0.632797
			 0.670810 -0.050813  0.739886
			 0.655002  0.071951  0.752194
			 0.687994 -0.179858  0.703075
			 0.451600 -0.549972  0.702558
			 0.528255 -0.581754  0.618473
			 0.317809 -0.508016  0.800573
			 0.587599  0.139852  0.796975
			 0.752240  0.174397  0.635390
			 0.620566  0.290474  0.728370
			-0.794823 -0.469597 -0.384363
			-0.698632 -0.461889 -0.546417
			-0.789499 -0.412786 -0.454201
			-0.734919 -0.603629 -0.309073
			-0.749982 -0.619066  0.232991
			-0.689136 -0.506255  0.518457
			-0.811835 -0.576367  0.093403
			-0.808643 -0.544802  0.222008
			-0.751371 -0.655686 -0.074278
			-0.482545 -0.614558  0.624074
			 0.772554 -0.447865  0.450086
			 0.290406 -0.635225  0.715649
			-0.163144 -0.564865  0.808895
			 0.081930 -0.555664  0.827360
			 0.243436 -0.502663  0.829499
			-0.960287  0.163024  0.226433
			-0.788582  0.370983  0.490418
			-0.135763  0.784563  0.605004
			-0.074580  0.842440  0.533604
			 0.101751  0.859589  0.500753
			 0.035690  0.880969  0.471826
			 0.300087  0.833757  0.463463
			 0.118368  0.861773  0.493291
			 0.392316  0.875335  0.282625
			 0.466452  0.744936  0.476962
			 0.407452  0.884071  0.228915
			 0.480296  0.799945  0.359727
			 0.368453  0.859308  0.354727
			 0.681155  0.451687  0.576200
			 0.681595  0.328198  0.653999
			 0.695049  0.398411  0.598478
			 0.623515  0.619341  0.477122
			 0.529798  0.725584  0.439138
			 0.706872  0.498625  0.501702
			 0.609611  0.395268  0.687123
			 0.664044  0.308786  0.680953
			 0.711729  0.097564  0.695646
			 0.702559  0.437498  0.561254
			 0.736278  0.363201  0.570947
			 0.939132  0.212244  0.270154
			-0.693338  0.499499  0.519406
			-0.254151  0.697415  0.670089
			-0.504490  0.647884  0.570733
			-0.192442  0.730165  0.655610
			-0.944786 -0.327587  0.008093
			-0.741171 -0.565572 -0.361654
			-0.844263 -0.512665 -0.156190
			-0.795405 -0.561164 -0.228968
			-0.714916 -0.501636 -0.487089
			-0.995617 -0.085933  0.036903
			-0.999863  0.014181  0.008518
			-0.934027 -0.316526 -0.165543
			-0.970276 -0.210626 -0.119171
			-0.994073  0.068498  0.084426
			 0.589921 -0.583025  0.558636
			 0.628145 -0.551792  0.548597
			 0.615305 -0.552371  0.562393
			 0.691786 -0.353650  0.629574
			 0.601233 -0.617969  0.506589
			 0.608761 -0.550801  0.570989
			 0.646336 -0.045377  0.761702
			 0.549779  0.337760  0.763977
			 0.553568  0.044678  0.831605
			 0.684462 -0.362478  0.632552
			 0.662366 -0.265204  0.700670
			 0.669634 -0.093644  0.736764
			 0.438964 -0.528131  0.726903
			 0.264325 -0.632266  0.728267
			 0.575686  0.434434  0.692714
			-0.687669 -0.577710 -0.439730
			-0.596639 -0.543037 -0.590874
			-0.575607 -0.541775 -0.612500
			-0.619336 -0.611629 -0.492273
			-0.731275 -0.535042 -0.423045
			-0.802711 -0.589234 -0.091970
			-0.802843 -0.539914  0.252856
			-0.862009 -0.506299 -0.024508
			-0.837651 -0.413328 -0.357073
			 0.751560 -0.563090  0.343638
			-0.667572 -0.638247  0.383391
			-0.373159 -0.686434  0.624149
			-0.661134 -0.627424  0.411388
			-0.673558 -0.662471  0.327799
			-0.034791 -0.643619  0.764555
			 0.115193 -0.640136  0.759577
			-0.958737  0.180058  0.220005
			-0.876207  0.340741  0.340819
			-0.416712  0.694660  0.586343
			-0.380372  0.795601  0.471525
			-0.142120  0.893384  0.426225
			 0.230817  0.895953  0.379464
			-0.031507  0.938682  0.343342
			 0.295358  0.935215  0.195284
			 0.303591  0.943362  0.133796
			 0.338931  0.926736  0.162131
			 0.491071  0.809426  0.321993
			 0.407714  0.909599  0.079989
			 0.329851  0.941506  0.069023
			 0.493993  0.847384  0.194708
			 0.571241  0.768196  0.289064
			 0.618251  0.710536  0.336012
			 0.225989  0.948990  0.219877
			 0.170218  0.947527  0.270591
			 0.729505  0.367209  0.577045
			 0.677255  0.298526  0.672464
			 0.690230  0.618504  0.375547
			 0.771243  0.389465  0.503489
			 0.762283  0.487890  0.425310
			 0.667360  0.426311  0.610646
			 0.600619  0.476359  0.642137
			 0.727333  0.275494  0.628562
			 0.690853  0.349074  0.633143
			 0.933080  0.222720  0.282413
			 0.883746  0.266637  0.384574
			-0.742271  0.544959  0.389940
			-0.325599  0.725726  0.606059
			-0.651697 -0.644676 -0.399606
			-0.571203 -0.647369 -0.504619
			-0.775249 -0.533591 -0.338038
			-0.683874 -0.622954 -0.379794
			-0.978358 -0.139210 -0.153090
			-0.991692  0.119454  0.047725
			-0.994699  0.061818 -0.082177
			-0.970078  0.181320  0.161469
			-0.987697 -0.043950 -0.150079
			-0.983916  0.012906 -0.178167
			-0.934554 -0.229610 -0.271823
			 0.672626 -0.587020  0.450535
			 0.551759 -0.727066  0.408580
			 0.592851 -0.776056  0.215092
			 0.479669 -0.728531  0.489040
			 0.658318 -0.680431  0.321916
			 0.447554 -0.655892  0.607865
			 0.621589 -0.695001  0.361387
			 0.626736 -0.530960  0.570337
			 0.542861 -0.759754  0.357876
			 0.544418 -0.710324  0.446148
			 0.519023 -0.781685  0.345809
			 0.477021 -0.735206  0.481583
			 0.697618  0.119946  0.706358
			 0.675255  0.148176  0.722547
			 0.561499  0.216701  0.798598
			 0.596669  0.467370  0.652343
			 0.601544  0.513500  0.611934
			 0.559668  0.501652  0.659634
			 0.733193 -0.180475  0.655635
			 0.756496 -0.196948  0.623639
			 0.678012 -0.440491  0.588445
			 0.733804  0.074652  0.675247
			 0.384022 -0.587084  0.712642
			-0.015044 -0.794231  0.607430
			 0.276265 -0.759020  0.589548
			 0.019504 -0.867818  0.496500
			-0.572861 -0.494221 -0.653893
			-0.586680 -0.486647 -0.647288
			-0.588714 -0.585729 -0.557079
			-0.580469 -0.529639 -0.618497
			-0.509070 -0.657806 -0.555103
			-0.569536 -0.617117 -0.542951
			-0.629374 -0.566810 -0.531616
			-0.676543 -0.489970 -0.549745
			-0.657231 -0.560841 -0.503493
			-0.723413 -0.235364 -0.649060
			-0.830008 -0.551616  0.082498
			-0.848650 -0.455745 -0.268496
			-0.807074 -0.243891 -0.537725
			-0.126260 -0.734616  0.666632
			-0.530986 -0.726761  0.435744
			-0.661250 -0.718645  0.215168
			-0.489333 -0.774719  0.400455
			-0.712762 -0.658074  0.242713
			-0.905247  0.358940  0.227353
			-0.607719  0.618350  0.498318
			-0.649304  0.660818  0.376461
			-0.533276  0.787073  0.310053
			-0.340068  0.888266  0.308769
			-0.258634  0.921690  0.289131
			-0.241254  0.960017  0.141999
			-0.045718  0.980717  0.190009
			 0.141085  0.989022  0.043929
			 0.397630  0.915152  0.066231
			 0.292046  0.953509  0.074365
			 0.455177  0.890081 -0.023865
			 0.409351  0.911332  0.043658
			 0.801398  0.597877  0.017453
			 0.560009  0.806380  0.190107
			 0.525593  0.850565  0.017072
			 0.637231  0.726733  0.256508
			 0.693015  0.652957  0.305578
			-0.011848  0.996993  0.076582
			 0.776010  0.335510  0.534081
			 0.771441  0.544872  0.328623
			 0.786643  0.388028  0.480237
			 0.729270  0.420535  0.539737
			 0.643773  0.495286  0.583308
			-0.813966  0.458288  0.356976
			-0.560225 -0.671717 -0.484710
			-0.721532 -0.575973 -0.384248
			-0.986297  0.163751 -0.020097
			-0.915767  0.337592  0.217723
			-0.971829  0.219873  0.084882
			-0.979214 -0.047074 -0.197293
			-0.947891 -0.162322 -0.274141
			-0.969728  0.013583 -0.243808
			-0.843879 -0.389210 -0.369302
			 0.673221 -0.676330  0.298918
			 0.474497 -0.870240  0.132423
			 0.462018 -0.829673  0.313342
			 0.422701 -0.893222 -0.153230
			 0.574986 -0.818109  0.009449
			 0.542531 -0.830443 -0.126588
			 0.315185 -0.850753  0.420569
			 0.355670 -0.897708  0.260037
			 0.611638 -0.782872  0.114059
			 0.633603 -0.765042  0.115146
			 0.646840 -0.748704  0.145053
			 0.513262 -0.856024  0.061525
			 0.448725 -0.868812  0.209312
			 0.567255 -0.613313  0.549609
			 0.357746 -0.828034  0.431715
			 0.413569 -0.831761  0.370317
			 0.338745 -0.926186  0.165627
			 0.407352 -0.859358  0.309141
			 0.666940  0.410667  0.621726
			 0.663295  0.373156  0.648687
			 0.800270 -0.061266  0.596502
			 0.796234  0.056584  0.602337
			 0.721959 -0.326607  0.610003
			 0.752521  0.010050  0.658492
			 0.655366 -0.471900  0.589751
			 0.717207  0.243860  0.652799
			-0.269880 -0.842158  0.466834
			-0.145350 -0.883293  0.445720
			 0.043391 -0.930799  0.362947
			-0.311469 -0.908479  0.278663
			-0.136476 -0.955402  0.261882
			-0.608237 -0.467994 -0.641116
			-0.582410 -0.472000 -0.661826
			-0.621078 -0.502435 -0.601516
			-0.613866 -0.458094 -0.642899
			-0.589711 -0.513142 -0.623639
			-0.513625 -0.712692 -0.477765
			-0.536941 -0.716745 -0.444940
			-0.633050 -0.650114 -0.420238
			-0.721762 -0.525704 -0.450216
			-0.648304 -0.497987 -0.575944
			-0.697126 -0.411371 -0.587187
			-0.726989 -0.349700 -0.590928
			-0.703860 -0.128247 -0.698666
			-0.729462 -0.080423 -0.679277
			-0.798920 -0.599136 -0.052565
			-0.835294 -0.475683 -0.275699
			-0.780386 -0.288305 -0.554868
			-0.712533 -0.701287  0.022217
			-0.601290 -0.780837  0.169541
			-0.680936 -0.718380  0.142328
			-0.777206  0.575934  0.253477
			-0.476925  0.866006  0.150253
			-0.701956  0.702547  0.116985
			-0.809075  0.579573  0.097427
			-0.405121  0.907726 -0.109135
			-0.204894  0.977623 -0.047662
			-0.077851  0.987952 -0.133755
			 0.047911  0.993496 -0.103300
			 0.173196  0.983603 -0.050284
			 0.879673  0.475546 -0.005556
			 0.871526  0.489954 -0.019672
			 0.250758  0.965062 -0.076003
			 0.323820  0.940029 -0.107171
			 0.452358  0.887498 -0.087857
			 0.626507  0.764644  0.151025
			 0.501704  0.858930 -0.102626
			 0.583946  0.805208 -0.103182
			 0.660246  0.749472  0.048648
			 0.705199  0.671155  0.228573
			 0.751740  0.364696  0.549439
			 0.817381  0.531341  0.222631
			 0.763253  0.599215  0.241630
			 0.800688  0.462173  0.381176
			 0.713691  0.482824  0.507470
			 0.761013  0.503008  0.409685
			 0.657196  0.513630  0.551613
			-0.680084 -0.599996 -0.421296
			-0.538165 -0.738702 -0.405831
			-0.924174  0.362191  0.121330
			-0.968849  0.246869 -0.019665
			-0.916206  0.389973  0.092127
			-0.983822  0.120341 -0.132712
			-0.970310  0.056770 -0.235109
			-0.971715  0.029037 -0.234363
			-0.952093 -0.094304 -0.290904
			-0.957736 -0.132155 -0.255494
			-0.935554 -0.136851 -0.325592
			-0.851654 -0.389948 -0.350179
			-0.954391  0.052994 -0.293817
			 0.306726 -0.951388  0.027931
			 0.251914 -0.949113 -0.189009
			 0.048052 -0.849553 -0.525311
			 0.166948 -0.852813 -0.494811
			 0.366871 -0.887244 -0.279649
			 0.361729 -0.868047 -0.340067
			 0.384009 -0.896442 -0.221202
			 0.436377 -0.882883 -0.173472
			 0.207713 -0.836998 -0.506250
			 0.161265 -0.951427  0.262259
			 0.138863 -0.989344  0.043760
			 0.511006 -0.852902 -0.106916
			 0.530777 -0.845502 -0.058327
			 0.376670 -0.906416 -0.191128
			 0.376039 -0.921503 -0.097095
			 0.375550 -0.926503 -0.023543
			 0.280440 -0.959869  0.002122
			 0.287261 -0.811003  0.509662
			 0.688651 -0.476599  0.546455
			 0.407454 -0.678002  0.611796
			 0.735032 -0.461043  0.497159
			 0.751710 -0.354194  0.556308
			 0.177774 -0.906513  0.382923
			 0.259055 -0.932312  0.252358
			 0.260455 -0.950173  0.171271
			 0.030339 -0.996869 -0.073015
			 0.831572  0.092335  0.547688
			 0.819008  0.040256  0.572368
			 0.819893  0.049065  0.570410
			 0.826438 -0.117239  0.550686
			 0.773076  0.373663  0.512571
			 0.822273 -0.254882  0.508825
			-0.064480 -0.997346  0.033820
			-0.139942 -0.989833  0.025424
			-0.632424 -0.763120 -0.132995
			-0.409019 -0.912447 -0.011994
			-0.692377 -0.427683 -0.581120
			-0.520924 -0.745722 -0.415375
			-0.600365 -0.694828 -0.395950
			-0.714109 -0.609875 -0.343658
			-0.777564 -0.519912 -0.353675
			-0.760067 -0.493657 -0.422612
			-0.716592 -0.107819 -0.689109
			-0.654468 -0.266349 -0.707623
			-0.594713 -0.405475 -0.694195
			-0.710234 -0.113350 -0.694780
			-0.667086 -0.044254 -0.743666
			-0.757101 -0.542690 -0.363711
			-0.697736 -0.554107 -0.454015
			-0.728672 -0.479348 -0.489146
			-0.659524 -0.731687 -0.172227
			-0.632879  0.768375 -0.095203
			-0.785123  0.606858 -0.123712
			-0.943529  0.325773 -0.060206
			-0.891002  0.431554 -0.140987
			-0.271876  0.942600 -0.193879
			-0.507181  0.817881 -0.271732
			-0.391419  0.862519 -0.320706
			-0.221589  0.943033 -0.248169
			-0.198371  0.929124 -0.312054
			-0.065907  0.963827 -0.258250
			 0.073788  0.973525 -0.216342
			 0.378862  0.919761 -0.102486
			 0.227717  0.949471 -0.215987
			 0.393478  0.888680 -0.235419
			 0.502377  0.856539 -0.118147
			 0.670319  0.740806 -0.043352
			 0.562766  0.805776 -0.184445
			 0.602870  0.764936 -0.226760
			 0.647989  0.732369 -0.209156
			 0.739696  0.663891  0.109997
			 0.681665  0.728387 -0.069183
			 0.821689  0.480264  0.306876
			 0.783289  0.620097  0.044024
			 0.833550  0.512654  0.205868
			 0.775005  0.630893  0.036615
			 0.788453  0.615034  0.008626
			 0.673184  0.604136  0.426430
			 0.784453  0.523063  0.333223
			 0.739500  0.533825  0.410087
			-0.550668 -0.769907 -0.322502
			-0.648097 -0.673365 -0.355738
			-0.587505 -0.743671 -0.319048
			-0.948322  0.236775 -0.211241
			-0.960613  0.038263 -0.275242
			-0.943630  0.138475 -0.300645
			-0.942806 -0.012741 -0.333099
			-0.941913  0.045849 -0.332712
			-0.898945 -0.209015 -0.384982
			-0.807433 -0.467498 -0.359858
			-0.938475 -0.013408 -0.345087
			-0.929888  0.044697 -0.365118
			-0.899293  0.056289 -0.433709
			 0.103729 -0.980158 -0.168911
			 0.027754 -0.954924 -0.295551
			-0.222322 -0.697172 -0.681560
			-0.404920 -0.552127 -0.728831
			-0.226348 -0.840736 -0.491864
			 0.200029 -0.881322 -0.428088
			-0.068234 -0.713790 -0.697028
			 0.002222 -0.833455 -0.552583
			 0.283648 -0.889045 -0.359366
			-0.285402 -0.703955 -0.650379
			-0.051821 -0.984397 -0.168159
			 0.173138 -0.943968 -0.280974
			 0.137679 -0.899453 -0.414763
			 0.114311 -0.971373 -0.208250
			 0.022216 -0.884251  0.466482
			 0.749222 -0.459613  0.476888
			 0.456259 -0.653302  0.604173
			 0.608473 -0.459858  0.646754
			 0.176398 -0.796590  0.578211
			 0.825233 -0.314400  0.469194
			 0.784276 -0.425911  0.451122
			 0.689438 -0.440931  0.574679
			 0.828128 -0.363644  0.426576
			 0.831375 -0.307288  0.463023
			 0.001557 -0.980621  0.195910
			 0.092716 -0.990629  0.100287
			-0.313252 -0.868957 -0.383127
			-0.457939 -0.883146 -0.101712
			-0.151555 -0.988256  0.019509
			 0.812618  0.253401  0.524824
			 0.854034 -0.005360  0.520190
			 0.840848  0.199134  0.503310
			 0.856982 -0.038769  0.513886
			-0.241947 -0.920788 -0.305958
			-0.431423 -0.851890 -0.296913
			-0.654343 -0.695049 -0.297896
			-0.609412 -0.568909 -0.552232
			-0.527680 -0.539012 -0.656521
			-0.724164 -0.628696 -0.283423
			-0.799585 -0.538565 -0.265728
			-0.816351 -0.514620 -0.262178
			-0.782334 -0.558393 -0.275955
			-0.734397 -0.536201 -0.416113
			-0.654163 -0.215002 -0.725152
			-0.430110 -0.476015 -0.767082
			-0.537671 -0.559157 -0.631073
			-0.323918 -0.656006 -0.681714
			-0.283265 -0.658160 -0.697558
			-0.682582 -0.223019 -0.695949
			-0.624256 -0.546995 -0.557764
			-0.646394  0.698635 -0.306732
			-0.819977  0.485494 -0.303207
			-0.869645  0.382596 -0.311988
			-0.581800  0.732812 -0.352839
			-0.435119  0.831436 -0.345522
			-0.177297  0.952741 -0.246677
			-0.051803  0.951014 -0.304777
			 0.129684  0.942581 -0.307771
			 0.531204  0.822396 -0.203685
			 0.439698  0.827672 -0.348748
			 0.372400  0.816070 -0.441983
			 0.548251  0.797024 -0.253327
			 0.249533  0.890166 -0.381232
			 0.720116  0.688542 -0.085689
			 0.705171  0.708588 -0.025248
			 0.575367  0.771687 -0.271021
			 0.607731  0.729233 -0.314455
			 0.700170  0.694127 -0.167180
			 0.657334  0.689450 -0.304254
			 0.630791  0.696368 -0.342306
			 0.617378  0.711840 -0.334855
			 0.759968  0.649143 -0.032583
			 0.743307  0.667302 -0.046932
			 0.820602  0.516384  0.244866
			 0.769966  0.631117 -0.094043
			 0.801512  0.549804  0.235148
			 0.715764  0.676159 -0.174618
			 0.652826  0.744618 -0.139149
			 0.755521  0.631861  0.173033
			 0.635942  0.768939 -0.065659
			 0.666434  0.745206 -0.023107
			 0.796299  0.500991  0.338993
			 0.779098  0.427892  0.458165
			-0.504738 -0.806388 -0.308185
			-0.614681 -0.733793 -0.289338
			-0.630555 -0.739042 -0.237102
			-0.603385 -0.780316 -0.164417
			-0.591598 -0.733225 -0.335251
			-0.927357  0.184581 -0.325483
			-0.935950 -0.021145 -0.351497
			-0.955067  0.025882 -0.295258
			-0.821337 -0.384688 -0.421213
			-0.919471  0.000989 -0.393157
			-0.881937 -0.133705 -0.452006
			-0.652432 -0.669887 -0.354379
			-0.916470 -0.070815 -0.393787
			-0.808270  0.222273 -0.545247
			-0.734607  0.388069 -0.556556
			-0.890522  0.047803 -0.452422
			-0.860913  0.256864 -0.439147
			-0.410187 -0.548054 -0.728961
			-0.045251 -0.805447 -0.590938
			-0.043042 -0.845108 -0.532859
			-0.175317 -0.838970 -0.515164
			-0.101169 -0.955453  0.277261
			-0.136155 -0.893084  0.428791
			 0.054406 -0.835909  0.546164
			-0.061275 -0.860862  0.505136
			 0.674434 -0.505749  0.537918
			 0.306685 -0.746371  0.590657
			 0.891503  0.006016  0.452975
			 0.820718 -0.411602  0.396239
			 0.885697 -0.173960  0.430441
			 0.869665 -0.313313  0.381469
			 0.881739 -0.292998  0.369714
			 0.828593 -0.333995  0.449312
			-0.298581 -0.938345  0.174237
			-0.413640 -0.742672 -0.526631
			-0.625397 -0.696194 -0.352409
			-0.742414 -0.655290 -0.139340
			-0.622220 -0.779605  0.071128
			 0.865541  0.302457  0.399197
			-0.728107 -0.647204 -0.225803
			-0.791868 -0.577621 -0.198242
			-0.853919 -0.512714 -0.089141
			-0.817652 -0.554203 -0.155898
			-0.733120  0.545269 -0.406468
			-0.810584  0.495857 -0.311576
			-0.707244  0.623037 -0.334112
			-0.603290  0.677485 -0.420780
			-0.685703  0.598756 -0.413888
			-0.682043  0.505004 -0.528951
			-0.318148  0.905779 -0.279903
			-0.521850  0.721214 -0.455547
			-0.351901  0.865730 -0.355917
			-0.140267  0.929684 -0.340608
			 0.051778  0.923823 -0.379301
			 0.467869  0.772899 -0.428633
			 0.402875  0.719350 -0.565887
			 0.300154  0.781771 -0.546572
			 0.350654  0.741669 -0.571812
			 0.606491  0.727402 -0.321021
			 0.620885  0.749256 -0.230472
			 0.139884  0.842688 -0.519912
			 0.718168  0.677016 -0.160885
			 0.602482  0.680616 -0.416866
			 0.642179  0.717077 -0.270937
			 0.601667  0.682985 -0.414159
			 0.591930  0.698698 -0.401796
			 0.641576  0.691330 -0.332331
			 0.639521  0.682411 -0.354018
			 0.619075  0.665426 -0.417078
			 0.508677  0.811234 -0.288351
			 0.591746  0.795482 -0.130559
			 0.790023  0.592918  0.155925
			 0.740281  0.667898  0.076789
			 0.737589  0.674672 -0.027942
			 0.702939  0.710318 -0.036413
			 0.666319  0.729568 -0.154108
			 0.806785  0.558974  0.191430
			 0.840047  0.457386  0.291752
			 0.946820  0.151365  0.283936
			 0.874960  0.324971  0.358940
			 0.919341  0.196662  0.340788
			-0.780202 -0.492647 -0.385466
			-0.736031 -0.625687 -0.258406
			-0.708216 -0.690238 -0.148329
			-0.649864 -0.747093 -0.139749
			-0.674152 -0.732654 -0.093470
			-0.945538  0.126722 -0.299831
			-0.855509 -0.291350 -0.428042
			-0.878967 -0.108978 -0.464263
			-0.906940 -0.089061 -0.411738
			-0.875014 -0.072004 -0.478714
			-0.928488 -0.138764 -0.344463
			-0.924121 -0.187874 -0.332721
			-0.730359  0.255475 -0.633489
			-0.737141  0.230374 -0.635257
			-0.773682  0.186829 -0.605401
			-0.035949 -0.927719  0.371546
			 0.093785 -0.890199  0.445815
			-0.002068 -0.881399  0.472367
			-0.147768 -0.831676  0.535239
			 0.069044 -0.870769  0.486820
			 0.176363 -0.839085  0.514619
			 0.098043 -0.881345  0.462189
			 0.568562 -0.659943  0.491134
			 0.806608 -0.458548  0.372984
			 0.915106 -0.183447  0.359065
			 0.927799  0.042363  0.370667
			 0.850594 -0.426725  0.307239
			 0.899562 -0.309395  0.308322
			 0.885526 -0.327655  0.329371
			 0.904243 -0.166562  0.393193
			 0.898273 -0.294383  0.326258
			 0.858106 -0.399729  0.322290
			 0.842673 -0.456447  0.285585
			 0.917413 -0.300158  0.261264
			-0.483118 -0.824879  0.293548