<?xml version="1.0"?>
<VTKFile type="PolyData" version="0.1" byte_order="LittleEndian" compressor="vtkZLibDataCompressor">
	<PolyData>
		<Piece NumberOfPoints="2542" NumberOfVerts="0" NumberOfLines="0" NumberOfStrips="0" NumberOfPolys="5080">
		<PointData Normals="Normals">
		<DataArray type="Float32" Name="Normals" NumberOfComponents="3" format="ascii">
			 0.287087  0.507853  0.812199
			 0.212307  0.445415  0.869788
			 0.054128  0.523974  0.850013
			 0.148362  0.628959  0.763151
			 0.274074  0.499082  0.822071
			 0.147622  0.578073  0.802521
			 0.380726  0.542813  0.748600
			 0.131811  0.597692  0.790816
			-0.090174  0.643308  0.760279
			-0.163381  0.518843  0.839112
			 0.054934  0.537043  0.841765
			 0.105192  0.617977  0.779127
			-0.358473  0.458620  0.813120
			-0.173481  0.490963  0.853733
			-0.053874  0.449142  0.891835
			 0.262098  0.609984  0.747813
			 0.034463  0.627653  0.777730
			 0.151434  0.559594  0.814815
			-0.178717  0.634828  0.751700
			-0.104816  0.621116  0.776678
			-0.067413  0.580350  0.811572
			 0.180967  0.595883  0.782416
			-0.044242  0.667865  0.742966
			-0.307864  0.621610  0.720292
			 0.250432  0.622710  0.741294
			 0.278146  0.477179  0.833627
			 0.088188  0.692372  0.716132
			-0.444964  0.541855  0.713022
			-0.504695  0.592875  0.627521
			-0.626751  0.434330  0.646948
			-0.287848  0.544864  0.787570
			-0.296730  0.376094  0.877784
			-0.469783  0.409020  0.782308
			-0.678107  0.359179  0.641219
			-0.073700  0.273281  0.959107
			-0.318312  0.201584  0.926305
			-0.029542  0.613760  0.788940
			 0.207645  0.600684  0.772051
			-0.379640  0.559940  0.736438
			 0.070979  0.443392  0.893513
			-0.410314  0.538019  0.736328
			-0.134888  0.596661  0.791076
			-0.095100  0.681870  0.725265
			-0.297391  0.694309  0.655358
			-0.431180  0.589791  0.682810
			 0.074109  0.548019  0.833177
			 0.155113  0.594601  0.788917
			 0.099908  0.788251  0.607189
			-0.043711  0.798308  0.600661
			-0.243453  0.531415  0.811374
			-0.121913  0.496558  0.859400
			-0.396836  0.676129  0.620782
			-0.640065  0.486874  0.594366
			-0.635990  0.576926  0.512517
			-0.472531  0.696158  0.540443
			-0.820179  0.341606  0.458925
			-0.825910  0.340281  0.449535
			-0.823913  0.420188  0.380275
			-0.636919  0.500404  0.586455
			-0.511822  0.218910  0.830732
			-0.575990  0.356138  0.735799
			-0.715966  0.155778  0.680534
			-0.877679  0.167635  0.448974
			-0.172828  0.235034  0.956499
			-0.342056  0.084747  0.935850
			-0.635644  0.067816  0.768998
			-0.499466  0.537924  0.679096
			-0.262080  0.688572  0.676153
			-0.065301  0.635908  0.768998
			-0.029410  0.548245  0.835800
			-0.155899  0.429717  0.889404
			-0.356041  0.583833  0.729639
			-0.439503  0.644797  0.625359
			-0.275348  0.802731  0.528968
			-0.093568  0.515332  0.851867
			-0.235072  0.621048  0.747690
			 0.198228  0.812684  0.547951
			 0.041382  0.754721  0.654739
			-0.184210  0.637980  0.747695
			-0.108517  0.856618  0.504409
			-0.007958  0.906672  0.421761
			-0.450840  0.612385  0.649406
			-0.545898  0.610685  0.573637
			-0.752039  0.507274  0.420844
			-0.675846  0.566558  0.471428
			-0.486019  0.695340  0.529422
			-0.613249  0.697056  0.371534
			-0.759065  0.556323  0.338119
			-0.919935  0.275516  0.278944
			-0.908693  0.413319  0.058695
			-0.820233  0.502374  0.273565
			-0.626686  0.623042  0.468063
			-0.906427  0.373321  0.197541
			-0.952673  0.152238  0.263130
			-0.868079  0.133988  0.478002
			-0.353580  0.192281  0.915428
			-0.464195  0.055904  0.883967
			-0.821294  0.092965  0.562880
			-0.577357 -0.002195  0.816489
			-0.544270 -0.026977  0.838476
			-0.524609  0.670686  0.524372
			-0.241764  0.595099  0.766425
			-0.437007  0.338583  0.833299
			-0.456950  0.802925  0.382763
			-0.313280  0.899712  0.303932
			-0.319630  0.609892  0.725168
			 0.160099  0.913126  0.374926
			 0.234328  0.957078  0.170566
			-0.048836  0.835952  0.546626
			-0.156999  0.767505  0.621521
			-0.367761  0.684673  0.629266
			-0.358762  0.806384  0.470143
			-0.085019  0.961244  0.262263
			 0.236910  0.964898  0.113336
			-0.369210  0.799610  0.473612
			-0.511483  0.762393  0.396412
			-0.271466  0.778567  0.565808
			-0.598305  0.724964  0.341260
			-0.603962  0.710627  0.360887
			-0.584236  0.727689  0.359357
			-0.546465  0.697576  0.463427
			-0.754146  0.627582  0.193405
			-0.674074  0.477781  0.563338
			-0.832533  0.465264  0.300697
			-0.959912  0.268672  0.079904
			-0.964331  0.233146  0.125334
			-0.845612  0.532410  0.038463
			-0.848171  0.481864 -0.220029
			-0.933724  0.311775 -0.175940
			-0.703805  0.657574  0.268802
			-0.959610  0.279715  0.030133
			-0.918265  0.111745  0.379871
			-0.964603  0.159001  0.210381
			-0.945737  0.142290  0.292121
			-0.405577  0.067356  0.911576
			-0.512313  0.077013  0.855339
			-0.587705  0.132733  0.798113
			-0.606731  0.028411  0.794399
			-0.847323  0.049250  0.528789
			-0.915751  0.107926  0.386977
			-0.621125  0.036224  0.782874
			-0.570682  0.018387  0.820965
			-0.335822 -0.008809  0.941884
			-0.617198  0.575442  0.536594
			-0.472561  0.591764  0.653071
			-0.605203  0.347197  0.716368
			-0.504011  0.834482  0.222740
			-0.413905  0.889631  0.192977
			-0.512399  0.854496  0.085343
			-0.614636  0.784022  0.086784
			-0.012187  0.985085  0.171638
			 0.181506  0.983183  0.020158
			 0.348397  0.930064 -0.116618
			-0.239893  0.895724  0.374339
			-0.078018  0.886412  0.456275
			-0.165432  0.771971  0.613753
			-0.407952  0.738436  0.536924
			-0.661911  0.706650  0.250038
			-0.549317  0.832672 -0.070061
			-0.277903  0.959238  0.051300
			-0.043812  0.985107  0.166270
			-0.314937  0.943969  0.098675
			 0.545876  0.830112 -0.113723
			 0.127758  0.991796 -0.004215
			-0.173850  0.983884  0.041827
			-0.426733  0.822152  0.376782
			-0.196249  0.902915  0.382400
			-0.284264  0.907137  0.310316
			-0.526665  0.775251  0.348726
			-0.352901  0.878125  0.323042
			-0.372269  0.866345  0.332960
			-0.501785  0.771542  0.391069
			-0.470379  0.664546  0.580622
			-0.580334  0.664129  0.471323
			-0.491119  0.696261  0.523472
			-0.757763  0.600236  0.255954
			-0.381511  0.687589  0.617795
			-0.392191  0.806399  0.442615
			-0.455442  0.610347  0.648112
			 0.754325  0.277633  0.594906
			-0.703693  0.266101  0.658792
			-0.127055  0.527488  0.840008
			-0.843040  0.383966  0.376633
			-0.955948  0.283007 -0.077913
			-0.697850  0.707775 -0.109817
			-0.804394  0.461010 -0.374727
			-0.684793  0.678521 -0.265836
			-0.873486  0.357770 -0.330187
			-0.869625  0.431707 -0.239544
			-0.948827  0.300948 -0.095698
			-0.986558  0.161197 -0.026822
			-0.982821  0.109019  0.148923
			-0.967228  0.086771  0.238621
			-0.456576  0.121032  0.881414
			-0.541654  0.076457  0.837117
			-0.482407  0.112214  0.868730
			-0.321246  0.069604  0.944434
			-0.463610  0.071497  0.883150
			-0.513727  0.057149  0.856048
			-0.639193  0.203879  0.741530
			-0.497174  0.038045  0.866816
			-0.634122  0.057963  0.771058
			-0.964210  0.003249  0.265121
			-0.890463  0.046729  0.452649
			-0.523152  0.847947 -0.085431
			 0.050335  0.983031 -0.176400
			 0.257997  0.901341 -0.347882
			 0.143623  0.955031  0.259402
			 0.065077  0.925578  0.372922
			-0.098738  0.921376  0.375922
			-0.052539  0.968820  0.242133
			-0.121184  0.873938  0.470689
			-0.229307  0.860826  0.454309
			-0.274978  0.712650  0.645381
			-0.392618  0.781170  0.485412
			-0.618794  0.665173  0.417897
			-0.812132  0.582574 -0.032376
			-0.819784  0.562559  0.107157
			-0.790377  0.592980 -0.153883
			-0.362591  0.871845 -0.329264
			-0.064815  0.962976 -0.261681
			 0.671808  0.727898 -0.137254
			 0.865519  0.357723 -0.350587
			 0.449943  0.888002 -0.094884
			-0.098815  0.985874 -0.135230
			-0.316221  0.945080 -0.082626
			 0.043357  0.974947  0.218171
			-0.022719  0.989747  0.141010
			-0.068727  0.980912  0.181904
			-0.298867  0.891626  0.340120
			-0.124937  0.947812  0.293330
			-0.196310  0.852360  0.484711
			-0.266184  0.568904  0.778135
			-0.488494  0.533051  0.690819
			-0.307787  0.516866  0.798822
			-0.338981  0.537520  0.772117
			-0.292301  0.516044  0.805145
			-0.558043  0.576605  0.596754
			-0.597649  0.486716  0.637121
			-0.739906  0.499085  0.451058
			-0.162626  0.576604  0.800675
			-0.189562  0.685281  0.703176
			 0.965586  0.107141  0.236990
			-0.786034  0.188333  0.588797
			-0.602846  0.205922  0.770826
			-0.762567  0.223768  0.606975
			-0.786849  0.410665 -0.460677
			-0.634338  0.659133 -0.403929
			-0.659536  0.563692 -0.497256
			-0.719178  0.441074 -0.536877
			-0.892052  0.394323 -0.220799
			-0.829096  0.404668 -0.385802
			-0.700309  0.512933 -0.496454
			-0.907758  0.261968 -0.327640
			-0.945523  0.169936 -0.277684
			-0.974403  0.162807 -0.155024
			-0.993819  0.082144 -0.074667
			-0.964177  0.080887 -0.252624
			-0.949508  0.103721 -0.296100
			-0.999820  0.011490  0.015116
			-0.995369 -0.030219  0.091251
			-0.983340  0.013017  0.181307
			-0.360468  0.043605  0.931752
			-0.522723  0.097682  0.846888
			-0.490142  0.050102  0.870201
			-0.634423  0.074523  0.769385
			-0.612337 -0.041277  0.789519
			-0.646451  0.002630  0.762951
			-0.412953  0.077227  0.907473
			-0.616916  0.102224  0.780362
			-0.576530  0.048584  0.815631
			-0.366647  0.039397  0.929526
			-0.680570  0.062785  0.729988
			-0.774397  0.074337  0.628318
			-0.980311 -0.008222  0.197289
			-0.992682 -0.102885  0.063218
			-0.984924 -0.053332  0.164561
			-0.960424  0.035021  0.276333
			-0.847435  0.076163  0.525407
			-0.505406  0.816030 -0.280463
			 0.567055  0.534323 -0.626855
			 0.353677  0.541884 -0.762413
			 0.130593  0.927846  0.349352
			 0.256568  0.931232  0.258806
			 0.410975  0.910775  0.039863
			 0.180446  0.978047  0.104224
			-0.087585  0.977770  0.190510
			-0.291371  0.944641  0.150852
			-0.376111  0.872996  0.310512
			-0.456586  0.875899  0.155984
			-0.418292  0.862162  0.285846
			-0.586253  0.788883  0.184310
			-0.788933  0.595247  0.152535
			-0.905378  0.414399  0.092544
			-0.532866  0.845765 -0.027099
			-0.887455  0.405383  0.219293
			-0.489766  0.707978 -0.508818
			 0.657922  0.488604 -0.573066
			 0.846826  0.501075 -0.178355
			 0.310773  0.924802 -0.219457
			 0.559412  0.789421 -0.252731
			 0.687445  0.573531 -0.445513
			 0.997930  0.008582 -0.063732
			 0.414541  0.194364 -0.889032
			 0.987490  0.142725  0.067036
			-0.305831  0.875332 -0.374516
			 0.246051  0.966120 -0.077920
			 0.053317  0.991474  0.118901
			 0.151518  0.988266 -0.019310
			 0.069456  0.994457  0.078938
			 0.283280  0.954187  0.096334
			 0.178635  0.975823  0.125934
			-0.175212  0.902522  0.393388
			 0.098442  0.861708  0.497763
			 0.132823  0.937423  0.321865
			 0.175450  0.740096  0.649211
			 0.023170  0.727565  0.685647
			 0.007597  0.461136  0.887297
			-0.053482  0.402667  0.913783
			-0.001147  0.434452  0.900694
			-0.228703  0.390901  0.891567
			-0.403986  0.248535  0.880356
			-0.551961  0.416788  0.722237
			-0.172466  0.292610  0.940550
			-0.283010  0.277615  0.918061
			-0.262388  0.401327  0.877548
			-0.161568  0.234528  0.958589
			-0.589525  0.452852  0.668869
			-0.585959  0.232320  0.776324
			 0.150439  0.540697  0.827656
			 0.233200  0.341042  0.910663
			-0.622772  0.009771  0.782342
			-0.553804  0.591112 -0.586419
			-0.510085  0.675584 -0.532353
			-0.655295  0.397554 -0.642292
			-0.550830  0.652840 -0.519987
			-0.605436  0.405835 -0.684650
			-0.579175  0.456363 -0.675492
			-0.802589  0.283031 -0.525115
			-0.675522  0.430663 -0.598497
			-0.853521  0.130856 -0.504359
			-0.937676 -0.055282 -0.343087
			-0.900550 -0.017020 -0.434420
			-0.965780 -0.151412 -0.210579
			-0.545127 -0.018327  0.838153
			-0.431716 -0.101647  0.896264
			-0.484661  0.021228  0.874444
			-0.366200 -0.065594  0.928222
			-0.536984  0.026245  0.843184
			-0.408329 -0.198259  0.891045
			-0.385007 -0.183813  0.904424
			-0.357383 -0.147040  0.922311
			-0.465980 -0.101179  0.878991
			-0.494883 -0.004287  0.868949
			-0.442296 -0.141297  0.885669
			-0.293777 -0.043458  0.954885
			-0.277574 -0.112828  0.954056
			-0.735737  0.080604  0.672454
			-0.625785  0.065209  0.777265
			-0.597359  0.058712  0.799822
			-0.997393 -0.042013  0.058668
			-0.997655 -0.067850 -0.008962
			-0.998841  0.029489  0.038050
			-0.956289 -0.220234 -0.192375
			-0.991835 -0.118678  0.046679
			-0.977876  0.053087  0.202339
			-0.668145  0.094600  0.737992
			-0.926336  0.106211  0.361416
			-0.600869  0.121115  0.790119
			-0.590544  0.103603  0.800327
			-0.747476  0.110738  0.654994
			 0.946040  0.121477 -0.300421
			 0.942914  0.025975 -0.332023
			-0.001222  0.996942  0.078142
			 0.364657  0.923392  0.119889
			 0.121379  0.992505 -0.014197
			 0.408722  0.902159 -0.138043
			 0.479446  0.862946 -0.159548
			 0.554822  0.801061 -0.224662
			 0.364496  0.928505 -0.070854
			 0.506991  0.854983 -0.109383
			 0.513129  0.853184 -0.093677
			 0.353729  0.927035 -0.124427
			-0.413189  0.883047 -0.222493
			-0.624367  0.761736 -0.172987
			-0.671185  0.741096  0.016949
			-0.671306  0.741158  0.005818
			-0.794277  0.606966 -0.026783
			-0.839310  0.543654 -0.000112
			-0.838826  0.481123  0.254738
			-0.613754  0.710761  0.343694
			-0.652894  0.651155 -0.386945
			-0.635585  0.733931  0.239534
			-0.755151  0.541062  0.370134
			-0.609042  0.545478 -0.575779
			 0.284239  0.817800 -0.500412
			 0.661963  0.696883 -0.275969
			 0.910013  0.317105  0.267058
			 0.849946  0.490017  0.193585
			 0.089769  0.886476 -0.453985
			-0.475855  0.856423 -0.200251
			 0.731731  0.523635 -0.436321
			 0.333812  0.856981  0.392623
			-0.249915  0.757734 -0.602812
			 0.241913  0.954892 -0.172217
			 0.402695  0.837226 -0.369986
			 0.163021  0.985212  0.052734
			 0.356758  0.933904 -0.023377
			 0.852931  0.521378  0.025962
			 0.860155  0.509705  0.018295
			 0.215071  0.921770  0.322621
			 0.131688  0.990667  0.035187
			 0.227793  0.967861  0.106563
			 0.267900  0.915599  0.299847
			 0.753240  0.657601  0.013803
			 0.330340  0.786124  0.522383
			 0.385304  0.665683  0.639068
			 0.365849  0.773724  0.517210
			 0.346910  0.505784  0.789833
			 0.412626  0.559165  0.719079
			 0.211581  0.322847  0.922499
			 0.240306  0.286724  0.927385
			 0.177746  0.121611  0.976533
			-0.207568  0.123905  0.970342
			-0.358530  0.052894  0.932018
			-0.186640 -0.011485  0.982361
			-0.161744  0.021148  0.986606
			 0.013152 -0.032522  0.999385
			-0.460366 -0.049596  0.886343
			 0.317912  0.371791  0.872183
			 0.417419  0.315106  0.852332
			 0.481499  0.064843  0.874044
			 0.431124  0.138090  0.891663
			 0.449892  0.170175  0.876720
			-0.467750  0.537118 -0.701936
			-0.438569  0.639761 -0.631160
			-0.340743  0.674551 -0.654886
			-0.522737  0.495125 -0.693972
			-0.542696  0.552360 -0.632756
			-0.584611  0.394928 -0.708704
			-0.591073  0.402376 -0.699090
			-0.537551  0.428567 -0.726202
			-0.622346  0.409686 -0.666966
			-0.484590  0.416610 -0.769161
			-0.718679  0.276113 -0.638171
			-0.807714  0.070506 -0.585343
			-0.687283  0.220308 -0.692176
			-0.840330 -0.083265 -0.535643
			-0.816432 -0.202050 -0.540939
			-0.854047 -0.237597 -0.462766
			-0.837254 -0.203132 -0.507684
			-0.387371 -0.164158  0.907191
			-0.459285 -0.076449  0.884993
			-0.286950 -0.125126  0.949739
			-0.268313 -0.225230  0.936632
			-0.295428 -0.217719  0.930226
			-0.301644  0.013440  0.953326
			-0.259683 -0.282331  0.923501
			-0.088963 -0.232703  0.968471
			-0.197915 -0.127746  0.971859
			-0.236225 -0.238763  0.941908
			-0.264229 -0.246306  0.932479
			-0.230943 -0.156583  0.960285
			-0.279690 -0.237882  0.930154
			-0.236933 -0.240767  0.941219
			 0.162609 -0.303652  0.938804
			 0.211322 -0.204239  0.955840
			-0.979359 -0.104082 -0.173272
			-0.983429 -0.121997 -0.134103
			-0.944797 -0.105555 -0.310188
			-0.985583 -0.004869 -0.169122
			-0.991866  0.028806 -0.123982
			-0.992886  0.050215  0.107960
			-0.898486 -0.175266 -0.402498
			-0.989929  0.082449  0.115080
			-0.305318  0.082744  0.948649
			-0.912109  0.139449  0.385501
			-0.967667  0.124457  0.219386
			-0.377713  0.147682  0.914070
			-0.583499  0.116630  0.803696
			-0.256924  0.084885  0.962696
			-0.839153  0.144044  0.524474
			-0.701314  0.102878  0.705390
			-0.793132  0.147313  0.590966
			-0.600761  0.116121  0.790950
			-0.491087  0.115567  0.863411
			 0.769771  0.575330 -0.276494
			-0.201822  0.931828 -0.301602
			 0.215013  0.970288 -0.110958
			-0.091844  0.932704 -0.348752
			 0.097050  0.925659 -0.365701
			 0.285534  0.869669 -0.402674
			 0.457629  0.832103 -0.313336
			 0.301308  0.810008 -0.503091
			 0.466939  0.761858 -0.448933
			 0.562759  0.797411 -0.217805
			 0.490606  0.617803 -0.614512
			 0.516608  0.720602 -0.462439
			 0.501963  0.678840 -0.535919
			 0.473077  0.850541 -0.229735
			 0.576209  0.809941 -0.109446
			-0.458019  0.708000 -0.537546
			-0.598096  0.602443 -0.528529
			-0.686004  0.670662 -0.282154
			-0.711676  0.688665 -0.138776
			-0.781151  0.619147 -0.080372
			-0.719369  0.693576  0.038214
			-0.745659  0.657471  0.108276
			-0.721448  0.656825  0.219304
			-0.803517  0.529982  0.271072
			-0.846357  0.530877  0.043003
			-0.738628  0.554799 -0.382918
			-0.770918  0.622909  0.132925
			-0.157629  0.788408 -0.594614
			-0.010499  0.805336 -0.592726
			 0.132190  0.943162  0.304911
			 0.143510  0.964648 -0.221043
			 0.758496  0.438449  0.482127
			 0.426536  0.669183  0.608491
			-0.575754  0.817562 -0.009981
			-0.610953  0.703374  0.363321
			 0.058680  0.690515  0.720934
			 0.179383  0.983342 -0.029336
			 0.306710  0.949859 -0.060804
			 0.327050  0.894229 -0.305601
			 0.528317  0.788265 -0.315467
			 0.426934  0.749510 -0.505927
			 0.608783  0.631108 -0.480714
			 0.485981  0.805148 -0.339939
			 0.551873  0.655841 -0.515081
			 0.607682  0.637506 -0.473612
			 0.429416  0.737349  0.521458
			 0.385165  0.914736  0.122096
			 0.461706  0.838075  0.290616
			 0.428425  0.845253  0.319373
			 0.537894  0.685090  0.491245
			 0.513445  0.581850  0.630733
			 0.566838  0.469879  0.676690
			 0.554271  0.509658  0.658052
			 0.571705  0.297601  0.764583
			 0.517757  0.257045  0.815999
			 0.490688  0.061862  0.869137
			 0.361603  0.111882  0.925595
			 0.197868 -0.109349  0.974110
			 0.341043 -0.101050  0.934601
			-0.115448 -0.155523  0.981063
			-0.143731 -0.137549  0.980011
			-0.134229 -0.180198  0.974429
			-0.087562 -0.149486  0.984879
			 0.611765  0.059753  0.788780
			 0.580793 -0.008223  0.814010
			 0.569447 -0.009256  0.821976
			-0.333325  0.667920 -0.665416
			-0.135996  0.775891 -0.616035
			-0.338463  0.662901 -0.667836
			-0.373007  0.710885 -0.596245
			-0.365699  0.749967 -0.551193
			-0.468809  0.565212 -0.678788
			-0.419172  0.352644 -0.836623
			-0.389338  0.389019 -0.834913
			-0.591085  0.326979 -0.737362
			-0.468557  0.260842 -0.844047
			-0.557836  0.246917 -0.792371
			-0.340265  0.338059 -0.877460
			-0.708096  0.035477 -0.705224
			-0.732518 -0.163155 -0.660907
			-0.595015  0.018045 -0.803512
			-0.705383 -0.299927 -0.642245
			-0.750661 -0.322891 -0.576411
			-0.773498 -0.269505 -0.573644
			-0.258548 -0.142301  0.955460
			-0.275769 -0.209114  0.938202
			-0.207895 -0.018500  0.977976
			-0.098719 -0.286933  0.952850
			-0.158166 -0.226894  0.960990
			-0.200780  0.067143  0.977333
			-0.005999  0.026966  0.999618
			 0.243162 -0.051119  0.968638
			-0.224712 -0.014127  0.974323
			-0.169310  0.225078  0.959518
			-0.249919 -0.213607  0.944411
			-0.132352 -0.285174  0.949294
			-0.011988 -0.378004  0.925726
			 0.697748 -0.348260  0.625990
			 0.581246 -0.639002  0.503815
			 0.766946 -0.214402  0.604835
			-0.744827 -0.167463 -0.645902
			-0.923637 -0.117663 -0.364761
			-0.821071 -0.090800 -0.563558
			-0.936186 -0.001087 -0.351504
			-0.996446  0.047871 -0.069312
			-0.928884  0.014089 -0.370103
			-0.983206  0.038672  0.178356
			-0.990626  0.034815  0.132090
			-0.996857  0.070624 -0.035888
			-0.992357  0.117750  0.036910
			-0.985575  0.139841  0.095321
			-0.936783  0.149335  0.316444
			-0.144030  0.163767  0.975928
			-0.060894  0.120853  0.990801
			-0.226992  0.130432  0.965123
			-0.123122  0.073416  0.989672
			-0.011521  0.053224  0.998516
			-0.734925  0.118296  0.667751
			-0.691823  0.138680  0.708624
			-0.914328  0.146918  0.377386
			-0.850990  0.130368  0.508744
			-0.207815  0.132054  0.969213
			-0.250117  0.090714  0.963957
			-0.355167  0.732910 -0.580258
			-0.219533  0.758617 -0.613437
			 0.063202  0.849364 -0.524009
			 0.042793  0.725540 -0.686848
			 0.323091  0.715194 -0.619766
			 0.149835  0.645045 -0.749311
			 0.340143  0.593939 -0.729067
			 0.570342  0.690155 -0.445416
			 0.613739  0.739373 -0.276861
			 0.409129  0.546002 -0.731092
			 0.325086  0.414933 -0.849794
			 0.429041  0.513402 -0.743197
			 0.551863  0.790966 -0.264236
			 0.638708  0.759243 -0.124910
			 0.668860  0.723674 -0.170065
			-0.561659  0.546338 -0.621332
			-0.506729  0.514394 -0.691827
			-0.412398  0.581175 -0.701543
			-0.533415  0.592806 -0.603365
			-0.691105  0.713028 -0.118171
			-0.618571  0.669469 -0.411317
			-0.687491  0.660544 -0.301724
			-0.729819  0.624349 -0.278482
			-0.758724  0.649960 -0.043474
			-0.807605  0.588118  0.043502
			-0.731168  0.557795  0.392757
			-0.801192  0.593068  0.079759
			-0.571947  0.546222  0.611979
			-0.455107  0.890235  0.018953
			-0.138540  0.897136 -0.419468
			-0.328571  0.922566 -0.202270
			 0.457072  0.874892  0.160156
			 0.464214  0.881281 -0.088597
			 0.597657  0.788342  0.146023
			 0.513403  0.839713 -0.176919
			 0.571498  0.719801 -0.394051
			 0.737038  0.659650 -0.147094
			 0.764488  0.644091  0.026547
			 0.605255  0.613857 -0.506800
			 0.805272  0.380210 -0.454948
			 0.616368  0.591680 -0.519620
			 0.762119  0.459550 -0.456057
			 0.737556  0.467104 -0.487673
			 0.727600  0.474412 -0.495511
			 0.636801  0.657890 -0.402077
			 0.619826  0.466227 -0.631227
			 0.660949  0.356974 -0.660088
			 0.551585  0.557110 -0.620792
			 0.574240  0.453225 -0.681788
			 0.702924  0.452283 -0.548944
			 0.629672  0.344790 -0.696156
			 0.581774  0.478037  0.658042
			 0.597643  0.723997  0.344456
			 0.661890  0.644798  0.382278
			 0.634761  0.615234  0.467510
			 0.680700  0.406841  0.609202
			 0.666652  0.294373  0.684777
			 0.716943  0.225154  0.659772
			 0.685724  0.130245  0.716114
			 0.448158 -0.104454  0.887831
			-0.065639 -0.233572  0.970121
			 0.344985 -0.197219  0.917654
			 0.115473 -0.244418  0.962770
			-0.134329 -0.309232  0.941452
			 0.726874  0.034650  0.685896
			 0.644269 -0.033374  0.764070
			 0.676154 -0.037991  0.735780
			 0.706760 -0.031219  0.706765
			 0.556786 -0.018480  0.830450
			-0.320525  0.854111 -0.409583
			-0.529519  0.705227 -0.471449
			-0.316415  0.732645 -0.602589
			-0.188215  0.735635 -0.650704
			-0.350257  0.629667 -0.693426
			-0.280200  0.254259 -0.925657
			-0.177716  0.215867 -0.960114
			-0.203013  0.581078 -0.788120
			-0.249579  0.349431 -0.903110
			-0.311445  0.192736 -0.930513
			-0.378276 -0.017954 -0.925519
			-0.522889  0.027870 -0.851945
			-0.615386 -0.206568 -0.760677
			-0.614303 -0.348950 -0.707719
			-0.457347 -0.187027 -0.869399
			-0.472878 -0.285357 -0.833642
			-0.640763 -0.311750 -0.701595
			-0.249063 -0.107522  0.962500
			-0.161723 -0.034518  0.986232
			-0.031510 -0.314098  0.948868
			 0.029381 -0.340781  0.939684
			 0.046269 -0.287573  0.956641
			 0.094450 -0.223175  0.970192
			-0.030877 -0.151320  0.988003
			-0.000136  0.043370  0.999059
			 0.357875  0.307481  0.881692
			-0.271710  0.230752  0.934306
			 0.063606 -0.075716  0.995099
			-0.030706  0.023756  0.999246
			 0.004397 -0.120265  0.992732
			-0.194460  0.504986  0.840937
			-0.123678 -0.220768  0.967453
			-0.019918 -0.320004  0.947207
			 0.066685 -0.283278  0.956717
			 0.114610 -0.292629  0.949333
			-0.089835 -0.680863  0.726880
			 0.017180 -0.982983  0.182889
			 0.242925 -0.914554  0.323387
			 0.677002 -0.222151  0.701654
			-0.535205 -0.216717 -0.816449
			-0.629074 -0.133819 -0.765741
			-0.512821 -0.195062 -0.836042
			-0.845652 -0.012367 -0.533591
			-0.692224 -0.058956 -0.719270
			-0.958510  0.048440 -0.280913
			-0.860163  0.032061 -0.509011
			-0.866663 -0.042178 -0.497108
			-0.957965  0.084500 -0.274157
			-0.988643  0.107589 -0.104927
			-0.985026  0.144930  0.093379
			-0.966602  0.099053 -0.236366
			 0.038550  0.096277  0.994608
			-0.023658  0.056739  0.998109
			 0.017614  0.104093  0.994412
			 0.029976  0.053896  0.998097
			-0.099660  0.071328  0.992462
			-0.434480  0.113535  0.893497
			-0.646067  0.151856  0.748022
			-0.721031  0.097452  0.686016
			-0.979362  0.137044  0.148554
			-0.889067  0.108012  0.444851
			-0.073304  0.095158  0.992760
			-0.093258  0.080610  0.992373
			-0.507852  0.540746 -0.670582
			-0.221242  0.554882 -0.801971
			-0.007177  0.552749 -0.833317
			 0.143708  0.508910 -0.848739
			 0.172795  0.360397 -0.916655
			 0.566000  0.514448 -0.644195
			 0.633055  0.608558 -0.478434
			 0.166235  0.258129 -0.951701
			 0.378426  0.385300 -0.841628
			 0.675451  0.681071 -0.282681
			 0.670689  0.565978 -0.479422
			-0.306120  0.472083 -0.826697
			-0.242879  0.656132 -0.714494
			-0.559674  0.607240 -0.563937
			-0.749473  0.612192 -0.252014
			-0.832299  0.553695 -0.026473
			-0.732437  0.651196 -0.198696
			-0.476536  0.793966 -0.377532
			 0.656632  0.754175  0.007355
			 0.736699  0.652863  0.176193
			 0.776153  0.485380  0.402484
			 0.718321  0.600861 -0.350686
			 0.799982  0.590965 -0.103877
			 0.861792  0.489700  0.132321
			 0.882826  0.349805  0.313456
			 0.806557  0.545566  0.227648
			 0.834796  0.424292 -0.350845
			 0.934544  0.132776 -0.330149
			 0.893128  0.210578 -0.397466
			 0.898740  0.236109 -0.369484
			 0.733191  0.433508 -0.523929
			 0.726300  0.348358 -0.592567
			 0.837888  0.264804 -0.477307
			 0.801862  0.283333 -0.526061
			 0.799466  0.268817 -0.537208
			 0.680054  0.446767 -0.581314
			 0.667219  0.225719 -0.709838
			 0.601539  0.392263 -0.695903
			 0.633540  0.155099 -0.758005
			 0.614434  0.103026 -0.782213
			 0.651112  0.188019 -0.735324
			 0.608212  0.270636 -0.746213
			 0.738416  0.416730  0.530168
			 0.798928  0.258465  0.543057
			 0.727941  0.119280  0.675185
			 0.818360  0.032799  0.573769
			 0.093865 -0.225858  0.969627
			 0.331579 -0.171929  0.927629
			-0.468591 -0.651718  0.596395
			-0.184125 -0.268319  0.945570
			-0.278632 -0.284574  0.917269
			 0.767680 -0.004203  0.640819
			 0.691551  0.007348  0.722290
			 0.666274  0.058696  0.743393
			 0.692326 -0.045004  0.720180
			 0.618310 -0.109633  0.778250
			 0.540553 -0.211406  0.814316
			-0.037348  0.604551 -0.795690
			-0.064302  0.129414 -0.989504
			-0.182751  0.203070 -0.961959
			-0.016892  0.083081 -0.996400
			-0.018755 -0.123654 -0.992148
			-0.202159 -0.024155 -0.979055
			-0.138384  0.544933 -0.826981
			-0.150554  0.361162 -0.920269
			-0.189646 -0.352471 -0.916405
			-0.449356 -0.408658 -0.794404
			-0.486774 -0.324707 -0.810936
			-0.380789 -0.375427 -0.845017
			-0.283544 -0.476843 -0.831999
			 0.005413  0.018603  0.999812
			 0.009609 -0.099310  0.995010
			 0.226805 -0.327767  0.917131
			 0.165606 -0.339522  0.925905
			 0.124306 -0.293873  0.947727
			 0.348225 -0.309689  0.884778
			 0.138615 -0.236816  0.961615
			 0.141016 -0.170048  0.975294
			 0.171542 -0.111731  0.978820
			-0.038197  0.107411  0.993481
			 0.076702  0.324166  0.942885
			-0.110814  0.722487  0.682446
			-0.403162  0.585135  0.703617
			-0.266164  0.159744  0.950599
			-0.077926 -0.071387  0.994400
			 0.071152 -0.245772  0.966713
			 0.133387 -0.360499  0.923173
			 0.329689 -0.271167  0.904308
			 0.173731 -0.319279  0.931600
			-0.705764 -0.698559  0.117950
			-0.525635 -0.710139  0.468413
			 0.104263 -0.307919  0.945682
			-0.329869 -0.253928 -0.909234
			-0.486460 -0.141601 -0.862152
			-0.410270 -0.243021 -0.878988
			-0.710192 -0.008028 -0.703962
			-0.665846 -0.032375 -0.745386
			-0.494503 -0.050683 -0.867697
			-0.842179  0.050272 -0.536849
			-0.927243  0.063441 -0.369046
			-0.982916  0.137943 -0.121849
			-0.987325  0.152948 -0.042388
			-0.882187  0.046651 -0.468583
			-0.902363  0.112109 -0.416140
			-0.937711  0.121355 -0.325532
			 0.041362  0.088157  0.995247
			 0.028045  0.121895  0.992147
			 0.131737  0.075905  0.988374
			 0.073480  0.010265  0.997244
			 0.072508  0.067644  0.995071
			-0.314819  0.141363  0.938566
			-0.565471  0.110478  0.817335
			-0.361246  0.133308  0.922892
			-0.523252  0.109575  0.845104
			-0.816113  0.080441  0.572267
			-0.744717  0.083486  0.662138
			-0.966210  0.106959  0.234517
			-0.988415  0.122381 -0.089773
			-0.928755  0.108454  0.354475
			-0.871154  0.084067  0.483760
			-0.046280  0.130568  0.990359
			-0.054917  0.135580  0.989243
			-0.417132  0.448247 -0.790617
			-0.094119  0.483733 -0.870140
			-0.151537  0.348504 -0.924977
			-0.232378  0.356631 -0.904884
			-0.017215  0.335722 -0.941804
			 0.395456  0.203627 -0.895629
			 0.582685  0.420481 -0.695467
			 0.259617  0.252782 -0.932041