<?xml version="1.0"?>
<VTKFile type="PolyData" version="0.1" byte_order="LittleEndian" compressor="vtkZLibDataCompressor">
	<PolyData>
		<Piece NumberOfPoints="4113" NumberOfVerts="0" NumberOfLines="0" NumberOfStrips="0" NumberOfPolys="8222">
		<PointData Normals="Normals">
		<DataArray type="Float32" Name="Normals" NumberOfComponents="3" format="ascii">
			-0.286364 -0.639880  0.713126
			-0.246037 -0.660400  0.709463
			-0.133071 -0.595264  0.792435
			-0.130981 -0.644647  0.753176
			-0.408782 -0.675219  0.613984
			-0.241579 -0.736530  0.631793
			-0.051431 -0.593112  0.803476
			-0.105015 -0.663660  0.740626
			 0.022938 -0.588007  0.808531
			-0.157374 -0.742547  0.651044
			-0.205640 -0.484120  0.850494
			-0.026779 -0.463897  0.885485
			-0.015895 -0.439718  0.897995
			 0.013591 -0.524883  0.851066
			-0.088651 -0.408590  0.908403
			 0.942839 -0.192219  0.272224
			 0.768178 -0.361122  0.528671
			-0.412184 -0.577290  0.704869
			-0.376987 -0.753745  0.538283
			-0.543530 -0.680586  0.491302
			-0.551578 -0.587262  0.592355
			-0.712610 -0.576422  0.399906
			-0.291146 -0.798680  0.526634
			 0.545717 -0.520132  0.657005
			-0.346666 -0.532858  0.771936
			 0.007932 -0.752028  0.659083
			-0.123605 -0.750129  0.649637
			 0.168374 -0.698646  0.695374
			 0.156610 -0.545948  0.823052
			-0.136397 -0.816597  0.560861
			-0.292144 -0.414181  0.862036
			-0.381445 -0.454689  0.804834
			-0.175354 -0.345283  0.921971
			 0.071730 -0.308244  0.948599
			 0.071278 -0.412301  0.908255
			-0.013315 -0.309719  0.950735
			 0.099030 -0.505615  0.857057
			-0.022235 -0.252003  0.967471
			-0.146746 -0.278639  0.949118
			-0.245895 -0.558821  0.791994
			-0.476936 -0.795238  0.374338
			-0.505944 -0.739160  0.444593
			-0.695849 -0.623586  0.356279
			-0.785204 -0.548041  0.288282
			-0.743681 -0.502603  0.440827
			-0.701754 -0.430190  0.567872
			-0.479622 -0.500773  0.720548
			-0.861606 -0.369878  0.347599
			-0.878866 -0.403061  0.255219
			-0.306871 -0.819639  0.483758
			-0.430388 -0.488421  0.759086
			-0.031631 -0.858327  0.512127
			 0.173998 -0.842707  0.509480
			 0.274765 -0.762590  0.585629
			 0.285744 -0.712662  0.640674
			 0.223978 -0.614839  0.756179
			 0.179521 -0.422929  0.888202
			 0.321896 -0.571865  0.754555
			-0.154832 -0.903866  0.398815
			-0.503221 -0.337223  0.795644
			-0.290529 -0.294790  0.910325
			-0.570268 -0.397591  0.718830
			 0.086943 -0.197605  0.976419
			 0.152656 -0.240940  0.958459
			 0.131651 -0.203042  0.970279
			 0.160689 -0.335647  0.928181
			 0.207989 -0.195598  0.958375
			-0.059738 -0.211290  0.975596
			-0.025093 -0.120844  0.992354
			-0.035312 -0.134841  0.990238
			-0.203412 -0.132301  0.970113
			-0.374891 -0.834996  0.402788
			-0.535518 -0.832382  0.142689
			-0.370488 -0.895956  0.244951
			-0.296337 -0.908815  0.293666
			-0.598168 -0.708566  0.374339
			-0.709121 -0.664488  0.235803
			-0.857299 -0.473457  0.202179
			-0.896980 -0.397155  0.194152
			-0.896778 -0.410706  0.164652
			-0.765067 -0.348114  0.541746
			-0.957430 -0.130159  0.257657
			-0.905118 -0.145129  0.399623
			-0.967183 -0.162931  0.194963
			-0.307532 -0.885120  0.349266
			-0.345916 -0.859097  0.377218
			-0.018484 -0.929968  0.367176
			 0.203137 -0.919331  0.336996
			 0.337983 -0.851559  0.400767
			 0.289417 -0.801342  0.523536
			 0.369527 -0.783879  0.498983
			 0.303238 -0.757942  0.577555
			 0.356102 -0.699252  0.619869
			 0.253254 -0.402622  0.879635
			 0.442834 -0.472042  0.762283
			 0.566345 -0.614357  0.549381
			 0.449899 -0.705570  0.547505
			-0.076899 -0.976560  0.201040
			-0.199503 -0.925673  0.321445
			-0.175909 -0.958148  0.225850
			-0.138194 -0.984845  0.104796
			-0.698081 -0.287223  0.655885
			-0.650117 -0.234083  0.722879
			-0.718240 -0.260528  0.645179
			-0.397968 -0.212058  0.892554
			-0.506992 -0.199220  0.838613
			-0.806860 -0.213179  0.550936
			 0.237395 -0.154188  0.959098
			 0.108481  0.044500  0.993102
			 0.164302  0.045754  0.985348
			 0.171961 -0.221973  0.959770
			 0.250578 -0.329247  0.910389
			 0.362889 -0.120398  0.924022
			 0.371559 -0.083433  0.924653
			 0.187622 -0.205558  0.960491
			 0.330269 -0.123908  0.935719
			 0.278015 -0.172609  0.944941
			 0.128554 -0.081476  0.988350
			-0.051279 -0.073760  0.995957
			-0.191709 -0.135200  0.972095
			-0.408085 -0.103947  0.907007
			-0.452191 -0.871147  0.191380
			-0.458117 -0.882326 -0.107838
			-0.336654 -0.941563 -0.011069
			-0.619081 -0.780252  0.089139
			-0.859584 -0.497101  0.118345
			-0.745508 -0.659753  0.094571
			-0.939431 -0.307824  0.150711
			-0.925412 -0.348297  0.149335
			-0.968245 -0.206512  0.140905
			-0.968031  0.130586  0.214159
			-0.972534  0.112036  0.204021
			-0.939787  0.058425  0.336728
			-0.989612  0.055182  0.132754
			-0.348332 -0.909987  0.224919
			 0.064718 -0.968401  0.240856
			 0.346225 -0.869965  0.351127
			 0.219759 -0.968110  0.120283
			 0.493536 -0.803943  0.331810
			 0.577935 -0.687086  0.440345
			 0.372297 -0.757729  0.535949
			 0.648082 -0.463978  0.603915
			 0.671534 -0.389516  0.630333
			 0.590105 -0.360279  0.722479
			 0.462537 -0.301582  0.833731
			 0.757680 -0.442668  0.479547
			 0.049237 -0.995309 -0.083275
			-0.140723 -0.975252 -0.170531
			-0.829690 -0.180516  0.528231
			-0.861224 -0.133695  0.490325
			-0.843911 -0.215606  0.491251
			-0.806204 -0.124041  0.578488
			-0.652707 -0.115629  0.748735
			-0.927250 -0.170661  0.333291
			-0.945295  0.003799  0.326195
			 0.157612  0.014522  0.987394
			 0.107647  0.175645  0.978550
			 0.189003  0.191996  0.963024
			 0.222828  0.199572  0.954211
			 0.163806  0.069608  0.984034
			 0.019614  0.113886  0.993300
			 0.271444 -0.262658  0.925921
			 0.608252 -0.061649  0.791347
			 0.586970 -0.114005  0.801542
			 0.424134 -0.171046  0.889300
			 0.557458 -0.072001  0.827077
			 0.489905 -0.209048  0.846341
			 0.110942 -0.158638  0.981084
			 0.184985 -0.169086  0.968086
			-0.125756 -0.000906  0.992061
			-0.115496 -0.091164  0.989116
			 0.087154 -0.037943  0.995472
			-0.293047 -0.251322  0.922475
			-0.454614 -0.145787  0.878676
			 0.029340 -0.127024  0.991466
			-0.165403 -0.221496  0.961031
			-0.003418 -0.118782  0.992914
			-0.067392 -0.981556 -0.178902
			-0.228876 -0.914291 -0.334198
			-0.407624 -0.889192 -0.207799
			-0.468595 -0.874593 -0.124521
			-0.608077 -0.793838 -0.008049
			-0.265715 -0.929791 -0.254723
			-0.015011 -0.957705 -0.287361
			-0.775663 -0.624576 -0.090839
			-0.887018 -0.458715  0.052721
			-0.935812 -0.339794  0.093784
			-0.978128 -0.192825  0.078000
			-0.997046 -0.076805  0.000881
			-0.969494 -0.116230  0.215806
			-0.994414  0.032581  0.100393
			-0.979563  0.127857  0.155270
			-0.989760  0.118857  0.079041
			-0.982019  0.093793  0.163836
			-0.971112  0.119876  0.206326
			 0.343634 -0.914262  0.214570
			 0.460440 -0.878749  0.125681
			 0.337222 -0.929427 -0.149821
			 0.414448 -0.909532 -0.031369
			 0.522695 -0.843973  0.120416
			 0.628138 -0.760353  0.165247
			 0.659815 -0.656766  0.365107
			 0.745015 -0.553259  0.372634
			 0.820847 -0.451565  0.349712
			 0.753990 -0.345673  0.558578
			 0.703652 -0.300470  0.643888
			 0.732088 -0.298631  0.612264
			 0.786534 -0.273841  0.553512
			 0.739716 -0.220216  0.635865
			 0.715363 -0.195309  0.670903
			 0.656414 -0.224641  0.720178
			 0.724294 -0.120585  0.678865
			 0.816725 -0.435350  0.378722
			 0.875130 -0.226276  0.427722
			 0.858088 -0.338977  0.385720
			-0.079959 -0.976414 -0.200555
			-0.059171 -0.961842 -0.267132
			 0.248519 -0.935569 -0.250898
			 0.075253 -0.954920 -0.287169
			 0.666564 -0.725615 -0.170809
			-0.969865 -0.049116  0.238643
			-0.966874 -0.127454  0.221158
			-0.930188 -0.051543  0.363446
			-0.874070 -0.053467  0.482849
			-0.707193 -0.183603  0.682765
			-0.850403 -0.134270  0.508710
			-0.995805 -0.089852  0.017288
			-0.121263  0.090964  0.988444
			-0.022914  0.071752  0.997159
			 0.138911  0.067701  0.987988
			 0.139768 -0.049610  0.988941
			 0.187847 -0.029247  0.981763
			 0.790587 -0.031267  0.611551
			 0.770832 -0.035656  0.636039
			 0.692160 -0.076903  0.717635
			 0.630283 -0.354264  0.690825
			 0.810643 -0.200146  0.550272
			 0.336908 -0.253017  0.906904
			 0.251176 -0.234220  0.939176
			-0.020503 -0.123770  0.992099
			-0.138188 -0.008893  0.990366
			 0.160232 -0.179522  0.970617
			-0.043670 -0.062999  0.997058
			-0.225066 -0.063784  0.972253
			-0.181194 -0.084992  0.979768
			 0.199906 -0.019210  0.979627
			 0.318811 -0.013838  0.947717
			-0.427861 -0.290258  0.855970
			-0.068799 -0.166261  0.983679
			-0.214688 -0.245756  0.945258
			 0.111108 -0.058014  0.992114
			 0.194955 -0.002742  0.980808
			 0.068363 -0.055759  0.996101
			 0.805898 -0.564718 -0.177823
			-0.156957 -0.964460 -0.212560
			 0.664512 -0.739387 -0.108308
			-0.074061 -0.954228 -0.289766
			-0.064504 -0.900568 -0.429903
			-0.210754 -0.807519 -0.550905
			-0.067102 -0.824830 -0.561385
			-0.409199 -0.856509 -0.314561
			-0.505379 -0.855133 -0.115499
			-0.604182 -0.784162 -0.141609
			-0.655811 -0.665394 -0.356598
			-0.880418 -0.449396 -0.151352
			-0.568098 -0.746354 -0.346730
			-0.587626 -0.762821 -0.269816
			-0.898005 -0.439777 -0.013560
			-0.952423 -0.304740  0.004793
			-0.974631 -0.163016  0.153363
			-0.998209 -0.018942 -0.056749
			-0.955222  0.016978  0.295403
			-0.978783  0.081118  0.188161
			-0.999587  0.023612 -0.016381
			-0.998497 -0.049318  0.023892
			-0.995028 -0.040674  0.090909
			-0.944024  0.150359  0.293616
			-0.958991  0.097126  0.266275
			-0.996110  0.053135  0.070298
			-0.974619  0.154524  0.161989
			 0.413592 -0.880835 -0.230370
			 0.536364 -0.841570 -0.063825
			 0.328249 -0.892167 -0.310308
			 0.677018 -0.734259  0.050103
			 0.758359 -0.600913  0.252577
			 0.772400 -0.512324  0.375396
			 0.943889 -0.262245  0.200751
			 0.965058 -0.207159  0.160464
			 0.787005 -0.175102  0.591576
			 0.898755 -0.068910  0.433002
			 0.927626 -0.064588  0.367885
			 0.961486 -0.093480  0.258470
			 0.856420 -0.018960  0.515932
			 0.969424 -0.036013  0.242733
			 0.822040 -0.052773  0.566978
			 0.942215 -0.200463  0.268412
			 0.948805 -0.063808  0.309352
			 0.177200 -0.974909 -0.134733
			 0.162825 -0.911972 -0.376557
			 0.124392 -0.891576 -0.435452
			-0.993318 -0.065578  0.094969
			-0.963304 -0.122763  0.238693
			-0.809237 -0.308456  0.499990
			-0.597489 -0.338806  0.726786
			-0.103828 -0.118467  0.987515
			-0.044565 -0.122452  0.991473
			 0.013067 -0.077488  0.996908
			 0.193282  0.012474  0.981064
			 0.900962 -0.007285  0.433837
			 0.918194 -0.067925  0.390265
			 0.823738 -0.083742  0.560752
			 0.754767 -0.383490  0.532223
			 0.465553 -0.346108  0.814537
			 0.638796 -0.402833  0.655489
			 0.927822 -0.228127  0.295135
			 0.814991 -0.374510  0.442190
			 0.130898 -0.085385  0.987712
			 0.370120 -0.190787  0.909182
			-0.203904  0.016548  0.978851
			-0.136066  0.030245  0.990238
			-0.130695 -0.043880  0.990451
			-0.256707  0.032919  0.965928
			-0.228810  0.031930  0.972947
			-0.146069  0.047292  0.988143
			-0.191374 -0.103701  0.976024
			 0.113312  0.041497  0.992692
			-0.147460  0.051236  0.987740
			-0.361018 -0.349538  0.864575
			 0.130134  0.063971  0.989430
			-0.064584 -0.033372  0.997354
			-0.228354 -0.109316  0.967422
			 0.021502 -0.881614 -0.471482
			-0.115012 -0.767894 -0.630168
			-0.402680 -0.777729 -0.482687
			-0.257017 -0.729392 -0.633979
			-0.163084 -0.734922 -0.658250
			 0.126074 -0.789379 -0.600822
			-0.051626 -0.729865 -0.681639
			-0.047163 -0.741874 -0.668878
			 0.254549 -0.715540 -0.650544
			-0.726545 -0.516270 -0.453428
			-0.528281 -0.610778 -0.589804
			-0.493319 -0.734083 -0.466646
			-0.970177 -0.236742 -0.052053
			-0.887269 -0.371504 -0.273383
			-0.983689 -0.104730  0.146243
			-0.964429  0.058616  0.257761
			-0.971984  0.065976  0.225596
			-0.996208 -0.086416  0.010124
			-0.999913  0.000235 -0.013184
			-0.960858  0.158213  0.227422
			-0.965355  0.196651  0.171515
			-0.998629  0.052313 -0.001847
			 0.329961 -0.846399 -0.418013
			 0.463313 -0.831263 -0.307151
			 0.418071 -0.816002 -0.399197
			 0.621830 -0.778720 -0.083205
			 0.697888 -0.704533 -0.128785
			 0.615786 -0.738256 -0.275292
			 0.798361 -0.594843  0.093710
			 0.721206 -0.692453 -0.019256
			 0.832722 -0.429063  0.349969
			 0.889373 -0.405044  0.212026
			 0.843230 -0.401214  0.357758
			 0.909288 -0.295896  0.292643
			 0.946843 -0.185705  0.262682
			 0.985471 -0.126574  0.113251
			 0.921957  0.099639  0.374255
			 0.911185  0.052999  0.408574
			 0.899421 -0.041639  0.435096
			 0.931069 -0.232496  0.281169
			 0.908539  0.029096  0.416786
			 0.894068  0.100191  0.436583
			 0.944427 -0.190329  0.268015
			 0.970362 -0.134210  0.200961
			 0.271794 -0.761856 -0.587965
			-0.995460 -0.090253  0.030227
			-0.978642 -0.205565 -0.001690
			-0.917652 -0.383709  0.103353
			-0.627185 -0.461264  0.627594
			-0.766621 -0.446295  0.461641
			-0.060294  0.024111  0.997889
			 0.079824  0.073682  0.994082
			 0.082658  0.190126  0.978274
			 0.962688 -0.047116  0.266482
			 0.952812 -0.144023  0.267221
			 0.823398 -0.421416  0.380032
			 0.668331 -0.503615  0.547454
			 0.534834 -0.407091  0.740426
			 0.775870 -0.466089  0.425189
			 0.870013 -0.362900  0.333737
			 0.931776 -0.324368  0.163027
			 0.929077 -0.254949  0.267985
			 0.991087 -0.064131  0.116762
			 0.990191 -0.090333  0.106595
			 0.268505 -0.082031  0.959779
			 0.217282 -0.011718  0.976039
			 0.080165  0.085424  0.993114
			 0.542107 -0.368147  0.755373
			 0.496156 -0.204288  0.843857
			 0.355947 -0.035684  0.933825
			-0.250944  0.055342  0.966418
			-0.053901  0.069215  0.996144
			 0.617915  0.023329  0.785898
			-0.085041  0.075142  0.993540
			 0.652655  0.035999  0.756799
			-0.154707  0.053605  0.986505
			-0.353358  0.113086  0.928628
			-0.081719  0.218380  0.972436
			-0.357393  0.089631  0.929643
			-0.509061 -0.410725  0.756414
			-0.471084 -0.251890  0.845359
			-0.335720 -0.180936  0.924421
			 0.057458  0.144537  0.987830
			-0.074673  0.107748  0.991370
			-0.257537  0.002471  0.966265
			-0.418254 -0.692810 -0.587434
			-0.371370 -0.557688 -0.742340
			-0.257748 -0.620938 -0.740271
			-0.173932 -0.693663 -0.698985
			-0.142485 -0.776078 -0.614330
			 0.753292 -0.494265 -0.433881
			 0.208913 -0.744994 -0.633513
			-0.105267 -0.750626 -0.652287
			 0.133000 -0.705605 -0.696012
			-0.072538 -0.625247 -0.777049
			-0.014553 -0.586117 -0.810096
			 0.841839 -0.390040 -0.373063
			-0.526823 -0.535795 -0.659834
			-0.714542 -0.438060 -0.545465
			-0.428238 -0.523658 -0.736474
			-0.437377 -0.491817 -0.752873
			-0.450797 -0.566332 -0.689964
			-0.982197 -0.175860 -0.066050
			-0.920452 -0.293537 -0.258078
			-0.998238 -0.040659  0.043227
			-0.993597  0.002444  0.112958
			-0.963159 -0.254635 -0.086524
			-0.954723 -0.274764 -0.114052
			-0.993696 -0.106109 -0.036184
			-0.997459 -0.069042 -0.017600
			-0.953004  0.106400  0.283658
			-0.969465  0.097710  0.224925
			-0.989257 -0.128050  0.070529
			 0.384501 -0.733104 -0.560997
			 0.500308 -0.746053 -0.439428
			 0.819673 -0.572811  0.004994
			 0.780763 -0.613394 -0.118987
			 0.652977 -0.692657 -0.306345
			 0.787506 -0.587458 -0.186356
			 0.729750 -0.654672 -0.197150
			 0.885788 -0.458527  0.071647
			 0.941743 -0.304214  0.143438
			 0.917414  0.152285  0.367643
			 0.945653  0.104670  0.307871
			 0.976645  0.012328  0.214507
			 0.814180  0.130932  0.565656
			 0.929001 -0.039049  0.368011
			 0.830825  0.059851  0.553306
			 0.896859  0.102569  0.430260
			 0.943770 -0.312981  0.106497
			 0.973091 -0.171503  0.153886
			 0.961549 -0.099929  0.255807
			 0.293455 -0.716591 -0.632757
			 0.248434 -0.720769 -0.647126
			-0.850019 -0.496466 -0.176040
			-0.916163 -0.398026 -0.047122
			-0.790765 -0.533425  0.300247
			-0.890730 -0.454504 -0.005069
			-0.895694 -0.444185  0.020778
			-0.836733 -0.546588  0.033457
			-0.739110 -0.398936  0.542740
			-0.667333 -0.385291  0.637352
			 0.035661  0.104348  0.993901
			 0.076622  0.155539  0.984854
			-0.168260  0.155122  0.973461
			-0.093682  0.216076  0.971872
			 0.006185  0.174844  0.984577
			 0.834474 -0.513274  0.200508
			 0.799919 -0.457685  0.388141
			 0.755432 -0.518843  0.400156
			 0.705983 -0.534539  0.464603
			 0.657110 -0.515672  0.549808
			 0.611748 -0.384726  0.691195
			 0.952429 -0.221826  0.208980
			 0.958791 -0.254595  0.126102
			 0.959558 -0.179837  0.216579
			 0.955877 -0.240841  0.168211
			 0.907442 -0.418910  0.032601
			 0.957089 -0.205221  0.204612
			 0.987863 -0.057616  0.144246
			 0.323592  0.061877  0.944171
			 0.056865  0.216873  0.974542
			 0.289613  0.116527  0.950024
			 0.548274 -0.159072  0.821031
			 0.498383  0.064756  0.864535
			-0.393581  0.054948  0.917646
			 0.022116  0.062441  0.997804
			-0.250711  0.071686  0.965404
			-0.079617  0.112864  0.990416
			-0.031712  0.107799  0.993667
			-0.022725  0.129821  0.991277
			 0.797560  0.027952  0.602591
			-0.209976  0.072350  0.975026
			-0.143770  0.133193  0.980607
			-0.250511  0.195890  0.948088
			-0.387758  0.169685  0.906008
			-0.026870  0.231327  0.972505
			 0.031976  0.257774  0.965676
			 0.121093  0.281168  0.951988
			-0.367337 -0.032879  0.929507
			-0.485808 -0.100879  0.868224
			-0.627857 -0.271700  0.729366
			-0.360660 -0.578179 -0.731870
			-0.187986 -0.561430 -0.805890
			 0.398743 -0.690766 -0.603197
			 0.738569 -0.506141 -0.445351
			 0.044680 -0.701414 -0.711353
			 0.005065 -0.612805 -0.790218
			-0.105398 -0.507810 -0.854997
			 0.122186 -0.506949 -0.853272
			-0.008961 -0.479594 -0.877444
			-0.568797 -0.428844 -0.701828
			-0.404026 -0.551910 -0.729492
			-0.436734 -0.473704 -0.764767
			-0.767381 -0.294161 -0.569733
			-0.953361 -0.167721 -0.250945
			-0.998819 -0.043973  0.020658
			-0.979806 -0.173239 -0.099846
			-0.935631 -0.210170 -0.283592
			-0.972646  0.078035  0.218792
			-0.918794 -0.364423 -0.151700
			-0.651442 -0.674871 -0.346659
			 0.964937 -0.250754  0.077584
			-0.989432 -0.141772  0.030404
			-0.956589  0.053441  0.286500
			-0.978948 -0.204109 -0.000282
			-0.986964 -0.128510  0.096889
			-0.953604 -0.300989  0.006738
			 0.446767 -0.628986 -0.636220
			 0.347433 -0.641378 -0.684050
			 0.425403 -0.675640 -0.602115
			 0.612284 -0.660067 -0.435225
			 0.629981 -0.682666 -0.370257
			 0.464215 -0.713129 -0.525311
			 0.872712 -0.488183  0.007112
			 0.825691 -0.560540 -0.063471
			 0.793735 -0.542829 -0.274448
			 0.902869 -0.429530 -0.018198
			 0.925725 -0.352568 -0.136857
			 0.955105  0.011418  0.296049
			 0.822328  0.101348  0.559915
			 0.891821 -0.024125  0.451745
			 0.924665 -0.051813  0.377240
			 0.846439  0.037064  0.531194
			 0.788894  0.064008  0.611187
			 0.937623 -0.082094  0.337821
			 0.945291 -0.078613  0.316615
			 0.964446 -0.256918  0.061951
			 0.977179 -0.210692 -0.027016
			 0.986338 -0.156657  0.050947
			 0.980234 -0.134283  0.145290
			 0.930703 -0.060477  0.360741
			 0.251686 -0.670085 -0.698313
			 0.151260 -0.674943 -0.722200
			-0.859059 -0.511383 -0.022464
			-0.782226 -0.619730  0.063697
			-0.791330 -0.570141 -0.220765
			-0.788058 -0.549936 -0.276650
			-0.861803 -0.461389 -0.210752
			-0.883847 -0.467638  0.011350
			-0.819690 -0.570762 -0.048364
			-0.758167 -0.359702  0.543873
			-0.772953 -0.547605  0.320424
			-0.738608 -0.635884  0.223852
			-0.660151 -0.149993  0.736005
			-0.720789 -0.241632  0.649674
			 0.019244  0.119152  0.992690
			-0.320101  0.079789  0.944017
			-0.282971  0.225176  0.932321
			-0.096554  0.224196  0.969749
			-0.089189  0.153521  0.984112
			 0.763826 -0.554874  0.329674
			 0.877509 -0.471178 -0.089271
			 0.845815 -0.525529  0.091736
			 0.687598 -0.607627  0.397491
			 0.675355 -0.532577  0.510154
			 0.646028 -0.348923  0.678897
			 0.948728 -0.147091  0.279784
			 0.877432 -0.060402  0.475883
			 0.880345 -0.076028  0.468201
			 0.941090 -0.337451 -0.021823
			 0.930545 -0.222644  0.290716
			 0.941560 -0.280537  0.186448
			 0.894584 -0.094411  0.436814
			 0.423685  0.123400  0.897365
			 0.304841  0.164589  0.938074
			 0.718801 -0.270200  0.640560
			 0.673119 -0.121332  0.729513
			 0.690234  0.037871  0.722594
			 0.614651  0.190696  0.765401
			 0.531412  0.269555  0.803083
			 0.641803  0.177092  0.746142
			 0.175434  0.105438  0.978829
			 0.102820  0.117578  0.987726
			 0.326295  0.083777  0.941548
			 0.007828  0.155056  0.987875
			 0.058998  0.181419  0.981634
			 0.109184  0.218844  0.969632
			-0.045539  0.251707  0.966731
			 0.052810  0.190533  0.980259
			 0.356863  0.218526  0.908238
			 0.244324  0.312370  0.918004
			 0.063414  0.299327  0.952041
			-0.527084  0.005781  0.849794
			-0.283109 -0.479800 -0.830446
			-0.165768 -0.485011 -0.858653
			-0.159896 -0.460223 -0.873286
			 0.164012 -0.590580 -0.790136
			-0.088035 -0.354290 -0.930982
			 0.253711 -0.544017 -0.799798
			 0.135051 -0.400025 -0.906499
			 0.272072 -0.399657 -0.875358
			 0.036390 -0.435688 -0.899362
			 0.279053 -0.487397 -0.827390
			-0.466202 -0.362110 -0.807176
			-0.782161 -0.236005 -0.576650
			-0.647788 -0.275745 -0.710166
			-0.852105 -0.252290 -0.458550
			-0.949657 -0.163514 -0.267234
			-0.929345 -0.115289 -0.350753
			-0.969261 -0.075657 -0.234113
			-0.999296 -0.004669 -0.037218
			-0.989917 -0.095695 -0.104439
			-0.976806  0.125291  0.173646
			-0.999276  0.037616 -0.005653
			-0.905938 -0.382527 -0.181519
			 0.850701 -0.481669 -0.210482
			-0.879137 -0.414425 -0.235308
			-0.952453  0.126120  0.277356
			-0.973595  0.035011  0.225582
			-0.990001 -0.031999  0.137384
			-0.992268 -0.124111  0.001115
			-0.971014 -0.216262 -0.101800
			-0.965874 -0.257893  0.024072
			-0.938533 -0.314941 -0.141310
			-0.906706 -0.375136 -0.192763
			 0.298299 -0.617581 -0.727744
			 0.798736 -0.392988 -0.455610
			 0.802632 -0.379803 -0.459926
			 0.313867 -0.606124 -0.730823
			 0.372786 -0.587166 -0.718517
			 0.506785 -0.632480 -0.585780
			 0.742606 -0.502745 -0.442474
			 0.884408 -0.371466 -0.282552
			 0.943812 -0.281097 -0.173793
			 0.845150  0.033911  0.533453
			 0.848754  0.059792  0.525397
			 0.802239  0.081951  0.591352
			 0.824663  0.070725  0.561185
			 0.922311 -0.287877 -0.257816
			 0.980840 -0.189900 -0.043489
			 0.987056 -0.159657  0.015173
			 0.980311 -0.123885  0.153761
			 0.987216 -0.159366 -0.002862
			 0.959444 -0.007603  0.281798
			 0.868431  0.003414  0.495798
			 0.965375 -0.035822  0.258395
			 0.212364 -0.618753 -0.756337
			 0.250660 -0.616833 -0.746114
			-0.855109 -0.469978  0.218880
			-0.773712 -0.509629 -0.376361
			-0.925204 -0.366346 -0.098935
			-0.880182 -0.403060 -0.250645
			-0.786042 -0.458933 -0.414148
			-0.958606 -0.251882  0.132776
			-0.937110 -0.240874  0.252597
			-0.886823 -0.271600  0.373869
			-0.801673 -0.293178  0.520930
			-0.712532 -0.136429  0.688248
			-0.013486  0.106239  0.994249
			-0.409193  0.110731  0.905704
			-0.553148  0.126683  0.823395
			-0.493385  0.162226  0.854549
			-0.647648  0.161258  0.744679
			-0.153376  0.237667  0.959161
			-0.183889  0.183449  0.965677
			-0.170115  0.202213  0.964454
			-0.153892  0.134021  0.978956
			 0.728302 -0.602817  0.325865
			 0.851122 -0.497967 -0.166196
			 0.963662 -0.267090 -0.004259
			 0.907763 -0.361119 -0.213445
			 0.901356 -0.350854  0.253888
			 0.945287 -0.323309 -0.043622
			 0.846533 -0.448453  0.286832
			 0.879058 -0.423868 -0.218160
			 0.797952 -0.511308  0.319120
			 0.774268 -0.427575  0.466571
			 0.716102 -0.386193  0.581423
			 0.970004 -0.182090  0.161044
			 0.882582 -0.113317  0.456299
			 0.850785  0.044655  0.523614
			 0.823102 -0.369475  0.431267
			 0.812750 -0.254955  0.523867
			 0.791193 -0.096771  0.603861
			 0.842118  0.166516  0.512943
			 0.876078 -0.001660  0.482167
			 0.739200  0.270537  0.616760
			 0.649694  0.321570  0.688833
			 0.790494  0.302739  0.532418
			 0.379765  0.284239  0.880333
			 0.017668  0.149886  0.988545
			-0.083712  0.135947  0.987173
			-0.045568  0.125516  0.991044
			 0.042884  0.130589  0.990509
			 0.059951  0.177437  0.982304
			 0.112184  0.267464  0.957015
			 0.109688  0.221220  0.969036
			 0.092861  0.143533  0.985279
			 0.114333  0.178323  0.977307
			-0.604198 -0.009906  0.796773
			-0.229159 -0.380891 -0.895773
			 0.242792 -0.605621 -0.757810
			-0.216584 -0.241814 -0.945842
			-0.158142 -0.224489 -0.961559
			 0.063131 -0.337485 -0.939211
			 0.034166 -0.262626 -0.964293
			-0.008891 -0.211839 -0.977264
			 0.440649 -0.551194 -0.708529
			 0.239593 -0.528046 -0.814716
			 0.337142 -0.279533 -0.898998
			 0.137714 -0.300547 -0.943772
			 0.341143 -0.314307 -0.885908
			 0.214586 -0.468595 -0.856955
			-0.484200 -0.284376 -0.827455
			-0.341529 -0.289483 -0.894180
			-0.851308 -0.151413 -0.502343
			-0.914735 -0.141406 -0.378502
			-0.498254 -0.242009 -0.832571
			-0.660014 -0.179730 -0.729438
			-0.977495 -0.071974 -0.198303
			-0.985484 -0.049064 -0.162522
			-0.969354 -0.059909 -0.238250
			-0.974368  0.114070  0.193894
			-0.996196  0.003083 -0.087083
			-0.998433  0.052363 -0.019750
			-0.980601  0.158387  0.115482
			-0.989306 -0.129627 -0.066858
			-0.995363  0.088029 -0.038764
			-0.876203 -0.349655 -0.331676
			-0.934010 -0.259730 -0.245288
			 0.877103 -0.314542 -0.362979
			 0.457891 -0.561524 -0.689222
			 0.383733 -0.540036 -0.749073
			 0.526843 -0.533445 -0.661719
			 0.828158 -0.376191 -0.415493
			 0.683631 -0.448375 -0.575855
			 0.852293  0.086902  0.515795
			 0.770630 -0.337234 -0.540742
			 0.880960 -0.274415 -0.385494
			 0.971203 -0.207568 -0.116958
			 0.995157 -0.098060  0.006781
			 0.949557 -0.215916 -0.227424
			 0.937973 -0.175754 -0.298860
			 0.973378  0.023679  0.227981
			 0.985005  0.033749  0.169193
			 0.887698 -0.095099  0.450498
			 0.940627  0.010689  0.339272
			 0.993917  0.073641  0.081889
			-0.761381 -0.428628 -0.486393
			-0.929252 -0.214438 -0.300845
			-0.993065 -0.116776  0.013618
			-0.879228 -0.245441 -0.408309
			-0.818173 -0.374322 -0.436435
			-0.877066 -0.061225  0.476453
			-0.969105 -0.114059  0.218692
			-0.802000 -0.120111  0.585124
			-0.693831 -0.014110  0.720000
			-0.699909  0.079680  0.709773
			-0.753973  0.085386  0.651333
			-0.732833  0.103726  0.672455
			-0.823128  0.148909  0.547984
			-0.679052  0.183054  0.710901
			-0.583009  0.203830  0.786481
			-0.151957  0.151354  0.976730
			-0.328453  0.216398  0.919397
			-0.168399  0.264090  0.949683
			-0.272111  0.161518  0.948613
			-0.401239  0.297423  0.866341
			-0.438359  0.220521  0.871328
			-0.322251  0.135449  0.936914
			 0.953000 -0.301668 -0.028052
			 0.876007 -0.385619 -0.289670
			 0.917489 -0.359488 -0.170244
			 0.917100 -0.174142  0.358610
			 0.876210 -0.370130 -0.308641
			 0.931891 -0.293642 -0.212965
			 0.979755 -0.170973 -0.104159
			 0.989616 -0.087558  0.113992
			 0.971748 -0.225648  0.069200
			 0.909139 -0.280811  0.307590
			 0.902158 -0.173180  0.395119
			 0.963821  0.064552  0.258617
			 0.931588  0.198638  0.304444
			 0.743795  0.315796  0.589102
			 0.791457  0.305793  0.529232
			 0.661880  0.252077  0.705955
			 0.863126  0.290883  0.412796
			 0.511627  0.260969  0.818616
			 0.302301  0.249098  0.920089
			-0.077793  0.099332  0.992009
			-0.238742  0.092519  0.966666
			 0.056424  0.100425  0.993344
			 0.093382  0.120468  0.988315
			 0.052751  0.108013  0.992749
			 0.408020  0.176907  0.895669
			 0.161727  0.129472  0.978305
			-0.107785 -0.098398 -0.989293
			-0.289553 -0.205437 -0.934855
			-0.203771 -0.136044 -0.969520
			-0.034710 -0.125747 -0.991455
			 0.125135 -0.247534 -0.960764
			 0.086796 -0.117530 -0.989269
			 0.100310 -0.012978 -0.994872
			 0.104143  0.016418 -0.994427
			 0.144221 -0.501525 -0.853037
			 0.345217 -0.469366 -0.812724
			 0.210133 -0.240231 -0.947699
			 0.281511 -0.260874 -0.923416
			 0.861899 -0.119747 -0.492737
			 0.760831 -0.166951 -0.627107
			 0.377994 -0.383525 -0.842632
			 0.409342 -0.300710 -0.861402
			 0.374830 -0.217021 -0.901335
			 0.328169 -0.474337 -0.816890
			 0.306298 -0.477837 -0.823318
			 0.372568 -0.178511 -0.910674
			-0.410831 -0.201246 -0.889223
			-0.819370 -0.104829 -0.563599
			-0.947832 -0.038796 -0.316401
			-0.599608 -0.169244 -0.782193
			-0.982500  0.170569  0.074837
			-0.984585  0.131082 -0.115800
			-0.947143 -0.138718 -0.289270
			-0.991285 -0.093578 -0.092721
			-0.978624  0.167381 -0.119494
			-0.939612  0.267637 -0.213309
			-0.938449  0.283815 -0.196882
			-0.995685 -0.014437 -0.091664
			-0.998298  0.007070 -0.057884
			-0.938308  0.131692 -0.319742
			-0.984689  0.029193 -0.171861
			-0.854018 -0.245604 -0.458619
			 0.422184 -0.466394 -0.777327
			 0.523814 -0.404636 -0.749592
			 0.627020 -0.335569 -0.703022
			 0.666989 -0.295796 -0.683835
			 0.786445 -0.233573 -0.571794
			 0.947591 -0.136020 -0.289083
			 0.992537 -0.071230 -0.098980
			 0.701462 -0.229224 -0.674839
			 0.850538 -0.206233 -0.483790
			 0.963345  0.088292  0.253322
			 0.941958 -0.142498  0.303989
			 0.975733  0.068122  0.208097
			 0.950371  0.045985 -0.307703
			 0.980698  0.114569 -0.158444
			 0.984945  0.035896 -0.169098
			 0.968666  0.228255  0.097904
			 0.965662  0.161580  0.203444