<?xml version="1.0"?>
<VTKFile type="PolyData" version="0.1" byte_order="LittleEndian" compressor="vtkZLibDataCompressor">
	<PolyData>
		<Piece NumberOfPoints="1434" NumberOfVerts="0" NumberOfLines="0" NumberOfStrips="0" NumberOfPolys="2864">
		<PointData Normals="Normals">
		<DataArray type="Float32" Name="Normals" NumberOfComponents="3" format="ascii">
			 0.949580 -0.257093  0.179446
			 0.929799 -0.016202  0.367710
			 0.933710 -0.219503  0.282849
			 0.922152 -0.376657  0.088125
			 0.962773 -0.122472  0.240973
			 0.945885 -0.324316 -0.011025
			 0.910818 -0.405933  0.075022
			 0.875981 -0.465288 -0.127137
			 0.904617 -0.031575  0.425055
			 0.926506  0.061413  0.371234
			 0.839847  0.151937  0.521125
			 0.905826 -0.404013  0.127490
			 0.858056 -0.269251  0.437314
			 0.828594 -0.465221  0.311449
			 0.828100 -0.556151 -0.070336
			 0.833609 -0.551429 -0.031969
			 0.810424 -0.584069 -0.045570
			 0.978645 -0.115135  0.170286
			 0.925411 -0.343270 -0.160562
			 0.983511 -0.179067  0.025321
			 0.816223 -0.546649 -0.186963
			 0.818047 -0.539335 -0.199793
			 0.692903 -0.679151 -0.242155
			 0.851103 -0.066717  0.520741
			 0.850823  0.191050  0.489490
			 0.920381  0.125864  0.370211
			 0.976476  0.031555  0.213305
			 0.786498  0.105142  0.608578
			 0.724334  0.281093  0.629545
			 0.726829  0.252018  0.638910
			 0.736208 -0.669022  0.102021
			 0.803714 -0.323217  0.499574
			 0.751716 -0.535465  0.384968
			 0.626050 -0.753205  0.201851
			 0.644680 -0.763586 -0.036388
			 0.675531 -0.721564 -0.151671
			 0.628399 -0.709224 -0.319555
			 0.998529 -0.047745  0.025683
			 0.779243 -0.605280 -0.162533
			 0.963842 -0.195907 -0.180638
			 0.912316 -0.354558 -0.204860
			 0.589867 -0.772594 -0.234853
			 0.574712 -0.788839 -0.217803
			 0.830977 -0.126433  0.541749
			 0.885281  0.226822  0.405992
			 0.791713  0.340430  0.507246
			 0.962589  0.108580  0.248258
			 0.712492  0.001052  0.701680
			 0.717916  0.192747  0.668913
			 0.772538 -0.095614  0.627729
			 0.811041 -0.176035  0.557875
			 0.613716  0.424260  0.665850
			 0.642841  0.469527  0.605227
			 0.654322  0.228577  0.720844
			 0.731613  0.238963  0.638466
			 0.506817 -0.861510  0.030631
			 0.829733 -0.350163  0.434661
			 0.687031 -0.592696  0.420356
			 0.522971 -0.818029  0.239436
			 0.329241 -0.943318  0.041862
			 0.445211 -0.875196 -0.189258
			 0.558239 -0.785203 -0.268001
			 0.990923  0.060377  0.120107
			 0.996077 -0.086666  0.017860
			 0.646571 -0.735461 -0.202591
			 0.833305 -0.514701 -0.201707
			 0.996244 -0.059653 -0.062769
			 0.955744 -0.149017 -0.253669
			 0.905886 -0.280480 -0.317335
			 0.887353 -0.219152 -0.405681
			 0.519081 -0.829194 -0.207347
			 0.514269 -0.836603 -0.188743
			 0.392181 -0.877602 -0.275699
			 0.503696 -0.830112 -0.239175
			 0.942406  0.190920  0.274629
			 0.828045  0.298070  0.474864
			 0.872347  0.272019  0.406223
			 0.789626  0.339952  0.510807
			 0.694553  0.488934  0.527769
			 0.694593  0.168616  0.699364
			 0.676351 -0.234387  0.698292
			 0.606310 -0.315201  0.730094
			 0.626486 -0.141708  0.766442
			 0.584496  0.007481  0.811362
			 0.659422 -0.364205  0.657661
			 0.775628 -0.462654  0.429363
			 0.646966 -0.538096  0.540267
			 0.490794  0.221933  0.842536
			 0.500265  0.394039  0.771018
			 0.550104  0.543079  0.634390
			 0.561732  0.586901  0.583099
			 0.579903  0.563747  0.588135
			 0.517366  0.109921  0.848675
			 0.540979  0.148558  0.827812
			 0.749971 -0.521453  0.406976
			 0.623455 -0.614744  0.483109
			 0.505548 -0.755185  0.417273
			 0.399678 -0.875449  0.271746
			 0.279744 -0.956209  0.086073
			 0.078407 -0.994993  0.061970
			 0.266823 -0.961185  0.070214
			 0.461449 -0.879193 -0.118676
			 0.500206 -0.862860 -0.072579
			 0.937330  0.211463  0.276939
			 0.995584  0.088586  0.031063
			 0.671597 -0.695130 -0.256420
			 0.553468 -0.815491 -0.169254
			 0.545388 -0.809116 -0.218823
			 0.784763 -0.516424 -0.342714
			 0.872838 -0.332292 -0.357401
			 0.974676 -0.056304 -0.216416
			 0.898913 -0.160799 -0.407553
			 0.894043 -0.224353 -0.387753
			 0.862010 -0.181304 -0.473358
			 0.357917 -0.926190 -0.118604
			 0.254403 -0.931457 -0.260130
			 0.390886 -0.890522 -0.232762
			 0.500642 -0.856354 -0.126554
			 0.470585 -0.871717 -0.136600
			 0.871659  0.264720  0.412472
			 0.774967  0.368345  0.513563
			 0.612908  0.571729  0.545409
			 0.581793  0.627997  0.516852
			 0.580537  0.571866  0.579608
			 0.508774 -0.548204  0.663793
			 0.470081 -0.409313  0.781976
			 0.446254 -0.604355  0.660010
			 0.471002 -0.247191  0.846790
			 0.413614 -0.013933  0.910346
			 0.384022 -0.104021  0.917446
			 0.425639 -0.189813  0.884761
			 0.493905 -0.639278  0.589391
			 0.396412 -0.780049  0.484129
			 0.394766  0.093436  0.914018
			 0.367617  0.250070  0.895725
			 0.448927  0.421351  0.787990
			 0.626081  0.454159  0.633847
			 0.516512  0.515151  0.683985
			 0.503120  0.624538  0.597346
			 0.600496  0.566617  0.564225
			 0.263125 -0.907482  0.327479
			 0.096471 -0.983708  0.151699
			 0.042829 -0.987721  0.150245
			 0.052471 -0.989302  0.136122
			 0.198513 -0.950141  0.240468
			 0.347629 -0.934829  0.072452
			 0.885524  0.293836  0.359873
			 0.952123  0.238964  0.190678
			 0.985776  0.037721 -0.163775
			 0.748310 -0.489957 -0.447186
			 0.637159 -0.670551 -0.379987
			 0.652759 -0.598004 -0.465078
			 0.577015 -0.772816 -0.264215
			 0.834887 -0.271280 -0.478926
			 0.919114 -0.104900 -0.379771
			 0.893015 -0.204185 -0.401041
			 0.143686 -0.984432  0.101230
			 0.173499 -0.971131 -0.163713
			 0.130276 -0.982014 -0.136663
			 0.045367 -0.963462 -0.263975
			 0.447866 -0.893977 -0.014878
			 0.568065 -0.773885 -0.280008
			 0.558513 -0.822887 -0.104496
			 0.785675  0.415781  0.458084
			 0.612945  0.550058  0.567217
			 0.638491  0.512687  0.574004
			 0.492556  0.686716  0.534611
			 0.334777 -0.769750  0.543515
			 0.378725 -0.736328  0.560704
			 0.225065 -0.524273  0.821270
			 0.264759 -0.699388  0.663896
			 0.243694 -0.386552  0.889489
			 0.419002 -0.169430  0.892037
			 0.283813 -0.219655  0.933382
			 0.242026 -0.241481  0.939739
			 0.068232 -0.955340  0.287525
			 0.450731 -0.043851  0.891582
			 0.286480  0.075809  0.955082
			 0.440675  0.086711  0.893469
			 0.306666  0.156877  0.938800
			 0.342909  0.287807  0.894193
			 0.428513  0.437948  0.790303
			 0.589580  0.437070  0.679238
			 0.969894  0.140567  0.198865
			 0.806966  0.319304  0.496841
			 0.403823  0.580737  0.706875
			 0.456531  0.754372  0.471701
			 0.344498  0.690203  0.636350
			 0.369747  0.771512  0.517742
			 0.693283  0.431065  0.577530
			 0.569625  0.649386  0.503810
			 0.124383 -0.983144  0.134004
			 0.190519 -0.941318  0.278609
			 0.083200 -0.984390  0.155091
			 0.251459 -0.943385  0.216317
			 0.422264 -0.889441  0.174894
			 0.200228 -0.972474  0.119175
			 0.245040 -0.927115  0.283571
			 0.839373  0.403480  0.364222
			 0.975231  0.193432 -0.107278
			 0.939543  0.336494  0.063490
			 0.868588  0.434643  0.237991
			 0.947599  0.003681 -0.319441
			 0.762551 -0.254492 -0.594769
			 0.723981 -0.436464 -0.534182
			 0.670396 -0.427497 -0.606478
			 0.690218 -0.423091 -0.587021
			 0.699849 -0.264263 -0.663608
			 0.647349 -0.515483 -0.561442
			 0.864113 -0.139308 -0.483634
			 0.774791 -0.176882 -0.606969
			 0.268946 -0.938253  0.217601
			 0.139930 -0.989460  0.037265
			-0.165423 -0.977149 -0.133476
			-0.043310 -0.987651 -0.150564
			 0.257725 -0.964796 -0.052413
			 0.012580 -0.998513  0.053042
			-0.035674 -0.998552  0.040257
			-0.193271 -0.974375 -0.115060
			 0.511810 -0.858996  0.013279
			 0.376136 -0.926088 -0.029714
			 0.649358 -0.675226 -0.349864
			 0.665335 -0.567132 -0.485479
			 0.372054 -0.921257 -0.113406
			 0.509717 -0.843232 -0.170727
			 0.732480  0.492597  0.469916
			 0.527933  0.668727  0.523537
			 0.652033  0.579608  0.488781
			 0.623874  0.589364  0.513255
			 0.463472  0.790071  0.401225
			 0.329469  0.879651  0.343023
			 0.312958  0.897059  0.311998
			 0.423124  0.729037  0.538025
			 0.275363  0.866654  0.416037
			 0.223498 -0.862975  0.453126
			-0.029844 -0.666563  0.744851
			 0.042114 -0.735399  0.676324
			 0.068449 -0.833891  0.547668
			 0.254475 -0.458372  0.851550
			 0.434991 -0.370540  0.820661
			 0.363552 -0.462903  0.808425
			 0.423592 -0.248105  0.871214
			 0.421188 -0.322293  0.847778
			 0.232453 -0.940182  0.249047
			-0.036142 -0.988211  0.148772
			 0.439134 -0.330567  0.835396
			 0.475761 -0.077079  0.876191
			 0.390121 -0.038476  0.919959
			 0.092389 -0.050652  0.994434
			 0.018508 -0.210338  0.977453
			 0.245233 -0.146943  0.958263
			 0.427076  0.029401  0.903737
			 0.424109 -0.102870  0.899750
			 0.262203  0.222756  0.938951
			 0.178988  0.137300  0.974224
			 0.144250  0.036266  0.988876
			 0.378856  0.417866  0.825746
			 0.297080  0.293408  0.908656
			 0.283751  0.265511  0.921406
			 0.307245  0.349514  0.885122
			 0.903792  0.245873  0.350294
			 0.379895  0.486464  0.786787
			 0.333866  0.518984  0.786886
			 0.551111  0.448364  0.703737
			 0.241383  0.610316  0.754485
			 0.273240  0.888400  0.368898
			 0.270905  0.859997  0.432454
			 0.240505  0.758846  0.605236
			 0.473120 -0.840923  0.262692
			 0.506626 -0.851769  0.133489
			 0.037234 -0.953925  0.297726
			 0.612198 -0.764311  0.202590
			 0.266415 -0.865602  0.423978
			 0.541806 -0.792620  0.279641
			 0.618103 -0.768106  0.167216
			 0.829424 -0.553544  0.075131
			 0.766952  0.534894  0.354505
			 0.905726  0.113764 -0.408312
			 0.959816  0.233360 -0.155871
			 0.937244  0.345520 -0.046798
			 0.780974  0.548119  0.299409
			 0.881717  0.457315 -0.115923
			 0.811711  0.558501  0.170885
			 0.860314 -0.060350 -0.506179
			 0.905372 -0.100920 -0.412453
			 0.648586 -0.157371 -0.744695
			 0.687652 -0.239385 -0.685442
			 0.667701 -0.181060 -0.722075
			 0.700513 -0.265636 -0.662359
			 0.694910 -0.095444 -0.712735
			 0.621591 -0.210982 -0.754395
			 0.741900 -0.175767 -0.647063
			 0.812855 -0.073889 -0.577761
			 0.823713 -0.100650 -0.558002
			 0.829624 -0.102130 -0.548902
			 0.310313 -0.948460 -0.064254
			 0.135626 -0.968092 -0.210723
			-0.200953 -0.965146 -0.167664
			-0.489737 -0.864621 -0.112194
			-0.490707 -0.865678 -0.099034
			 0.252346 -0.966981 -0.035621
			-0.139432 -0.987950  0.067182
			-0.234258 -0.965237  0.115931
			-0.156443 -0.966433  0.203797
			 0.128210 -0.986130  0.105400
			 0.265577 -0.963947  0.016555
			-0.358631 -0.930121  0.079110
			 0.735675 -0.450215 -0.506053
			 0.786408 -0.425465 -0.447819
			 0.706871 -0.629301 -0.322977
			 0.333376 -0.941185 -0.055057
			 0.505696 -0.829893 -0.235687
			 0.669786 -0.646840 -0.364670
			 0.641108  0.642009  0.420482
			 0.185464  0.947342  0.261048
			 0.199870  0.922999  0.328823
			 0.567680  0.708361  0.419480
			 0.290750  0.847838  0.443436
			-0.039591 -0.933779  0.355654
			-0.177976 -0.830421  0.527945
			 0.191891 -0.600458  0.776291
			 0.073252 -0.790643  0.607880
			-0.136249 -0.889155  0.436852
			 0.267022 -0.629002  0.730107
			 0.201075 -0.567121  0.798713
			-0.036551 -0.782606  0.621443
			 0.296224 -0.470062  0.831440
			 0.327409 -0.539507  0.775716
			 0.816566 -0.559683  0.141334
			 0.430424 -0.386270  0.815801
			 0.252848 -0.695026  0.673058
			 0.331175 -0.070309  0.940946
			 0.224509 -0.346771  0.910684
			 0.244534 -0.257082  0.934940
			-0.162268 -0.310398  0.936655
			-0.135272 -0.200308  0.970349
			-0.264376 -0.504669  0.821836
			 0.022114 -0.405691  0.913743
			 0.289244 -0.144263  0.946322
			 0.262614 -0.492970  0.829466
			 0.115373  0.092938  0.988965
			-0.043091 -0.016620  0.998933
			 0.263497  0.469236  0.842845
			 0.169691  0.284540  0.943526
			 0.231097  0.378759  0.896179
			 0.146039  0.144499  0.978669
			 0.128907  0.521558  0.843422
			 0.069109  0.642975  0.762763
			 0.133718  0.820573  0.555679
			 0.264239  0.783991  0.561726
			 0.171199  0.931589  0.320677
			 0.177952  0.710887  0.680421
			 0.520713 -0.853351 -0.025500
			 0.432947 -0.892896 -0.123665
			-0.108314 -0.888949  0.445014
			 0.097559 -0.811067  0.576761
			-0.023508 -0.900811  0.433576
			 0.346087 -0.787784  0.509530
			 0.437148 -0.804506  0.402084
			 0.491278 -0.843270  0.218043
			 0.339036 -0.939920  0.040060
			 0.656312  0.692736  0.298950
			 0.683798  0.664511  0.301406
			 0.927419  0.227180 -0.297125
			 0.928273  0.043866 -0.369303
			 0.742172  0.670078  0.013241
			 0.841331  0.380425 -0.383977
			 0.770340  0.558086 -0.308410
			 0.631909 -0.235098 -0.738525
			 0.633546 -0.098666 -0.767388
			 0.617916 -0.093614 -0.780651
			 0.692661 -0.060658 -0.718708
			 0.716882 -0.044801 -0.695754
			 0.733629 -0.250972 -0.631507
			 0.661593 -0.066421 -0.746916
			 0.630928 -0.181862 -0.754225
			 0.633066 -0.260204 -0.729055
			 0.611740 -0.304496 -0.730108
			 0.749155 -0.083671 -0.657089
			 0.703881 -0.164570 -0.690990
			 0.775632 -0.126555 -0.618368
			 0.827973 -0.016148 -0.560536
			 0.174298 -0.973887 -0.145482
			-0.067901 -0.995788 -0.061613
			-0.375687 -0.920706 -0.105644
			-0.543029 -0.839704 -0.004104
			-0.595083 -0.801870 -0.053679
			-0.500419 -0.861608  0.084931
			-0.585931 -0.809767  0.031008
			-0.301761 -0.940263  0.157626
			-0.265443 -0.945165  0.190272
			-0.190499 -0.944376  0.268074
			-0.061843 -0.976280  0.207492
			 0.281230 -0.943299 -0.176341
			 0.241586 -0.953366 -0.180911
			 0.135466 -0.990780 -0.001869
			-0.537004 -0.817252  0.209107
			-0.512684 -0.822143  0.247458
			-0.386120 -0.895598  0.220944
			 0.790854 -0.252571 -0.557456
			 0.771030 -0.416409 -0.481785
			 0.813417 -0.167278 -0.557110
			 0.342393 -0.907602 -0.242951
			 0.570902 -0.626069 -0.531138
			 0.425710 -0.790238 -0.440789
			 0.689991 -0.436074 -0.577713
			 0.208070  0.861344  0.463457
			 0.327284  0.870654  0.367215
			 0.191049  0.830627  0.523029
			 0.352660  0.837072  0.418261
			 0.491500  0.800663  0.342589
			-0.240915 -0.878223  0.413139
			-0.028265 -0.874425  0.484336
			-0.187419 -0.922565  0.337266
			 0.082042 -0.769019  0.633939
			-0.040875 -0.908407  0.416085
			 0.191461 -0.716019  0.671312
			 0.009501 -0.885658  0.464240
			 0.020024 -0.838847  0.543999
			 0.163615 -0.580220  0.797856
			-0.097393 -0.647174  0.756095
			-0.353936 -0.420944  0.835186
			-0.110801 -0.086460  0.990075
			-0.246600 -0.259028  0.933859
			-0.353689 -0.407225  0.842064
			-0.423122 -0.614730  0.665639
			-0.351026 -0.731741  0.584240
			-0.075259 -0.004283  0.997155
			-0.076645 -0.093686  0.992647
			 0.010805  0.464882  0.885307
			 0.025883  0.387532  0.921493
			-0.143239  0.249692  0.957672
			-0.086035  0.066726  0.994055
			-0.175741  0.551152  0.815688
			-0.234532  0.640567  0.731210
			-0.199567  0.741397  0.640706
			-0.153422  0.856814  0.492271
			 0.172603  0.927770  0.330835
			-0.044183  0.910814  0.410445
			-0.144460 -0.803554  0.577436
			 0.102105 -0.734421  0.670970
			 0.070333 -0.799335  0.596755
			 0.056981 -0.814968  0.576698
			 0.284963 -0.807410  0.516609
			 0.304248 -0.907408  0.289903
			 0.171732 -0.877870  0.447049
			 0.182578 -0.975505  0.122701
			-0.149224 -0.988741 -0.011160
			 0.601675  0.791168  0.109730
			 0.514957  0.834053  0.197925
			 0.878626  0.223244 -0.422113
			 0.979919  0.058398 -0.190651
			 0.821256  0.052148 -0.568172
			 0.969719  0.043532 -0.240312
			 0.882078  0.053700 -0.468032
			 0.649506  0.740068 -0.174475
			 0.894003  0.198301 -0.401790
			 0.764452  0.489552 -0.419467
			 0.644941  0.643048 -0.412965
			 0.629044 -0.249125 -0.736370
			 0.672897  0.012136 -0.739637
			 0.765477 -0.057834 -0.640860
			 0.692528 -0.004878 -0.721375
			 0.576914 -0.126180 -0.807000
			 0.589329 -0.054635 -0.806044
			 0.562391 -0.193590 -0.803890
			 0.690056 -0.188470 -0.698786
			 0.497916 -0.191634 -0.845787
			 0.624741 -0.247620 -0.740529
			 0.680906 -0.166313 -0.713237
			 0.821354 -0.027403 -0.569761
			 0.848799  0.064677 -0.524745
			-0.394317 -0.907005  0.147839
			-0.490865 -0.847736  0.200987
			-0.626991 -0.771720  0.106450
			-0.598195 -0.785364  0.159268
			-0.609939 -0.783469  0.118955
			-0.264671 -0.929047  0.258499
			 0.065181 -0.970707  0.231255
			 0.822107 -0.565965  0.061834
			 0.228570 -0.973399 -0.015841
			 0.281771 -0.815626 -0.505331
			 0.224407 -0.841573 -0.491320
			 0.238147 -0.888054 -0.393251
			 0.301651 -0.769261 -0.563244
			 0.337567 -0.900315 -0.274741
			 0.159115 -0.954359 -0.252749
			-0.598881 -0.765690  0.234651
			-0.614232 -0.777818  0.133109
			-0.514292 -0.789375  0.335247
			-0.582346 -0.756676  0.297176
			-0.440926 -0.808337  0.390097
			 0.744511 -0.193764 -0.638874
			 0.407705 -0.599505 -0.688745
			 0.615350 -0.349683 -0.706446
			 0.391464  0.877724  0.276326
			 0.209840  0.863576  0.458479
			 0.077370  0.802164  0.592071
			 0.279970  0.905934  0.317647
			 0.349048  0.799349  0.489088
			 0.235983  0.869902  0.433109
			 0.476303  0.774773  0.415766
			 0.191173  0.817220  0.543696
			 0.265049  0.811832  0.520266
			 0.289657  0.828829  0.478686
			 0.381671  0.819954  0.426618
			-0.123464 -0.893011  0.432767
			-0.060951 -0.936759  0.344628
			-0.097190 -0.842966  0.529114
			-0.084968 -0.919644  0.383452
			-0.198439 -0.873146  0.445239
			-0.247950 -0.893658  0.374028
			-0.235090 -0.822246  0.518309
			-0.443528 -0.579800  0.683459
			-0.419775 -0.383334  0.822705
			-0.302116 -0.229932  0.925126
			-0.436670 -0.544034  0.716481
			-0.369686 -0.822425  0.432376
			-0.494424 -0.640899  0.587191
			-0.498062 -0.758176  0.420836
			-0.353353 -0.120569  0.927688
			-0.291290  0.372922  0.880954
			-0.399987  0.457414  0.794219
			-0.233146  0.162514  0.958766
			-0.385259  0.299310  0.872920
			-0.302747 -0.034503  0.952446
			-0.469703  0.616047  0.632348
			-0.553370  0.646466  0.525227
			-0.376862  0.784674  0.492200
			-0.027349  0.919466  0.392218
			-0.342230  0.835451  0.430000
			-0.078618 -0.774496  0.627674
			-0.122870 -0.776149  0.618462
			-0.014543 -0.856179  0.516474
			-0.298514 -0.820267  0.487905
			 0.110656 -0.965312  0.236492
			-0.126836 -0.943522  0.306071
			-0.239454 -0.886803  0.395275
			-0.127821 -0.978982  0.158919
			 0.556355  0.830529 -0.026283
			 0.829309  0.175677 -0.530456
			 0.572928  0.743295 -0.345350
			 0.837347  0.322069 -0.441726
			 0.725854  0.635876 -0.262293
			 0.627282  0.693826 -0.353727
			 0.789829  0.382647 -0.479323
			 0.759668  0.265590 -0.593605
			 0.849961  0.442310 -0.286231
			 0.620221  0.003347 -0.784420
			 0.659227  0.067991 -0.748864
			 0.652805  0.099669 -0.750941
			 0.687601 -0.124159 -0.715395
			 0.640246 -0.160609 -0.751192
			 0.448380 -0.164781 -0.878523
			 0.517263 -0.019321 -0.855609
			 0.736817 -0.063102 -0.673141
			 0.690771 -0.057321 -0.720798
			 0.607163 -0.083532 -0.790175
			 0.484969 -0.171599 -0.857531
			 0.825090  0.123987 -0.551230
			-0.579216 -0.758736  0.298041
			-0.588008 -0.806013  0.067748
			-0.607870 -0.767285  0.204370
			-0.529108 -0.837248  0.138062
			-0.552268 -0.830543  0.072095
			-0.191953 -0.903268  0.383745
			 0.606642 -0.794706 -0.020669
			-0.009989 -0.980943  0.194039
			 0.841591 -0.535721 -0.068757
			 0.038397 -0.992755 -0.113860
			 0.138795 -0.685807 -0.714426
			 0.185213 -0.697500 -0.692235
			 0.348474 -0.799116 -0.489877
			 0.186266 -0.523288 -0.831549
			 0.219215 -0.671300 -0.708026
			 0.258881 -0.867408 -0.424951
			 0.140722 -0.823428 -0.549694
			 0.219512 -0.915418 -0.337377
			-0.606348 -0.760040  0.233838
			-0.616460 -0.787178  0.018100
			-0.739485 -0.669090  0.074035
			-0.679268 -0.689706  0.250802
			-0.650606 -0.664151  0.368260
			-0.580985 -0.681494  0.444997
			-0.492407 -0.744476  0.450878
			-0.425018 -0.766965  0.480754
			-0.325619 -0.824786  0.462277
			 0.539395 -0.371991 -0.755431
			 0.240767 -0.637045 -0.732260
			 0.389938  0.912527  0.123463
			 0.276432  0.912340  0.302029
			 0.286387  0.930540  0.228204
			 0.447324  0.894362  0.004171
			 0.382383  0.912334  0.146392
			 0.197260  0.845856  0.495596
			 0.463236  0.762041  0.452445
			 0.184989  0.854916  0.484662
			 0.551784  0.744188  0.376456
			 0.342084  0.883028  0.321310
			 0.808086  0.541666  0.231506
			-0.357995 -0.824288  0.438622
			-0.501341 -0.725062  0.472169
			-0.525254 -0.768662  0.365057
			-0.525206 -0.577081  0.625409
			-0.475850 -0.262142  0.839553
			-0.597577 -0.358369  0.717268
			-0.524473 -0.809857  0.262794
			-0.502908 -0.116820  0.856409
			-0.530760  0.062022  0.845250
			-0.602116  0.256045  0.756239
			-0.607721  0.496389  0.619898
			-0.667133  0.353982  0.655462
			-0.358652  0.236610  0.902987
			-0.580036  0.180239  0.794401
			-0.706080  0.486966  0.514116
			-0.635170  0.634746  0.440065
			-0.677156  0.530844  0.509573
			-0.686147  0.537091  0.490648
			-0.066195  0.886043  0.458853
			-0.378980  0.843645  0.380313
			-0.541783  0.756930  0.365415
			-0.505560  0.796434  0.331816
			-0.398508 -0.775216  0.490134
			 0.544130  0.815541 -0.197017
			 0.581091  0.714011 -0.390541
			 0.678362  0.707568 -0.197919
			 0.739392  0.662902 -0.117731
			 0.737374  0.674636  0.033858
			 0.604774  0.719257 -0.341932
			 0.736820  0.141719 -0.661069
			 0.711126 -0.078238 -0.698698
			 0.823910  0.120819 -0.553692
			 0.623088 -0.014939 -0.782009
			 0.857023  0.507245  0.090634
			 0.919688  0.381606 -0.092469
			 0.891483  0.158784 -0.424317
			 0.605095  0.087322 -0.791350
			 0.593488  0.029598 -0.804298
			 0.663080  0.038985 -0.747533
			 0.630143  0.045491 -0.775145
			 0.551574  0.146727 -0.821119
			 0.585486  0.032764 -0.810020
			 0.490355 -0.376872 -0.785824
			 0.562549 -0.144424 -0.814052
			 0.455142 -0.482569 -0.748313
			 0.289361 -0.266155 -0.919474
			 0.259055 -0.071221 -0.963233
			 0.601968 -0.200708 -0.772885
			 0.579982 -0.219255 -0.784568
			 0.434320  0.003383 -0.900752
			 0.507652 -0.181300 -0.842271
			 0.515435  0.044732 -0.855760
			-0.548791 -0.768753  0.328401
			-0.669629 -0.741616  0.040028
			-0.545375 -0.799204  0.252664
			-0.499971 -0.830869  0.244305
			-0.549531 -0.773948  0.314675
			-0.597124 -0.797978  0.081696
			-0.655525 -0.725377  0.210036
			-0.271637 -0.858585  0.434793
			-0.293084 -0.905633  0.306480
			-0.099554 -0.980832  0.167501
			 0.042598 -0.978391  0.202327
			-0.269446 -0.850890  0.450982
			 0.068563 -0.931982 -0.355962
			 0.117673 -0.981236 -0.152742
			 0.044659 -0.644290 -0.763476
			 0.215375 -0.431555 -0.875999
			 0.179735 -0.496390 -0.849289
			 0.170929 -0.610878 -0.773053
			 0.192030 -0.753184 -0.629157
			-0.843443 -0.464828  0.269330
			-0.818286 -0.571704  0.059682
			-0.892085 -0.417223  0.173523
			-0.797611 -0.480911  0.364063
			-0.741799 -0.437048  0.508648
			-0.809149 -0.376852  0.450845
			-0.454388 -0.725353  0.517103
			-0.564559 -0.645406  0.514514
			-0.702562 -0.409570  0.581944
			-0.388426 -0.767367  0.510170
			 0.155347 -0.650150 -0.743755
			 0.220437  0.975175  0.020998
			 0.180543  0.983226  0.025918
			 0.252104  0.954530  0.159109
			 0.370957  0.928563  0.012730
			 0.500256  0.853465 -0.146085
			 0.561653  0.753729 -0.341233
			 0.566297  0.719642  0.401774
			 0.257519  0.843352  0.471637
			 0.045628  0.915562  0.399581
			-0.187030  0.838814  0.511283
			 0.494107  0.820355  0.287883
			 0.910176  0.377431  0.170661
			 0.895186  0.417865  0.155020
			-0.589958 -0.639634  0.492766
			-0.622452 -0.094267  0.776961
			-0.756375 -0.063988  0.651001
			-0.743738 -0.288827  0.602854
			-0.708552  0.099378  0.698626
			-0.787118  0.180192  0.589896
			-0.786976  0.271695  0.553940
			-0.788601  0.351068  0.504837
			-0.784135  0.423814  0.453337
			-0.760404  0.496202  0.419009
			-0.723764  0.647384  0.238871
			-0.830028  0.512744  0.219424
			-0.763254  0.412640  0.497165
			-0.286722  0.838722  0.462964
			-0.498151  0.729348  0.468932
			-0.668959  0.650510  0.359625
			 0.715812  0.678213 -0.166257
			 0.870414  0.384209  0.307836
			 0.862078  0.470636  0.187943
			 0.758446 -0.092358 -0.645159
			 0.648492 -0.288587 -0.704397
			 0.852276  0.520087 -0.055997
			 0.892580  0.383327 -0.237406
			 0.800729  0.122551 -0.586357
			 0.573847  0.186921 -0.797346
			 0.534226  0.175819 -0.826855
			 0.605324 -0.109886 -0.788358
			 0.499658 -0.230339 -0.835036
			 0.562403 -0.125826 -0.817233
			 0.562770 -0.070216 -0.823626
			 0.540011  0.150755 -0.828046
			 0.521239  0.141737 -0.841558
			 0.504493  0.140671 -0.851880
			 0.462682  0.296846 -0.835349
			 0.522274  0.285392 -0.803605
			 0.456969  0.249122 -0.853884
			 0.532957  0.037292 -0.845320
			 0.528586 -0.224664 -0.818610
			 0.515704 -0.194844 -0.834318
			 0.395274 -0.362095 -0.844184
			 0.060140 -0.297999 -0.952670
			 0.547640  0.017273 -0.836536
			 0.116143 -0.394299 -0.911614
			 0.296888 -0.114301 -0.948047
			 0.083749 -0.173058 -0.981344
			 0.249285 -0.052651 -0.966998
			 0.357198  0.110872 -0.927425
			 0.629129  0.154725 -0.761746
			 0.408936  0.128297 -0.903499
			 0.450356  0.146783 -0.880701
			-0.701184 -0.712178  0.033813
			-0.855904 -0.516588  0.023777
			-0.678490 -0.578841  0.452321
			-0.807356 -0.450568  0.381006
			-0.829028 -0.509258  0.231018
			-0.796534 -0.575719  0.184610
			-0.245217 -0.921121  0.302331
			-0.277096 -0.861071  0.426350
			-0.253014 -0.898941  0.357615
			-0.275278 -0.959329  0.062524
			-0.192697 -0.958593 -0.209683
			-0.227337 -0.970062 -0.085428
			 0.106973 -0.975917 -0.190114
			 0.062141 -0.878684 -0.473342
			-0.135817 -0.957533 -0.254331
			 0.368491 -0.697345 -0.614756
			 0.269649 -0.815048 -0.512822
			-0.034774 -0.739490 -0.672269
			 0.226414 -0.439253 -0.869364
			 0.392702 -0.434549 -0.810526
			 0.256667 -0.561807 -0.786445
			 0.702505 -0.392344 -0.593762
			-0.864954 -0.226939  0.447609
			-0.913240 -0.176088  0.367405
			-0.944527 -0.297313  0.139548
			-0.947337 -0.119863  0.296962
			-0.836171 -0.124144  0.534235
			-0.813311 -0.116917  0.569961
			-0.524093 -0.586339  0.617684
			-0.496241 -0.658446  0.565856
			-0.552527 -0.572896  0.605396
			-0.822647 -0.097689  0.560096
			-0.716560 -0.341549  0.608183
			-0.400693 -0.825001  0.398521
			-0.689142 -0.560669  0.459057
			-0.680787 -0.620801  0.388760
			-0.097976 -0.767138 -0.633956
			 0.128181 -0.604984 -0.785853
			 0.416816  0.891790 -0.176000
			 0.136068  0.976813 -0.165291
			 0.232652  0.957383 -0.171147
			 0.282226  0.906187  0.314919
			 0.295013  0.953221 -0.065855
			 0.243645  0.950276  0.193943
			 0.217586  0.972922  0.077975
			 0.508760  0.807873 -0.297496
			 0.437387  0.769247 -0.465782
			 0.395589  0.807801  0.436997
			 0.480951  0.802893  0.352206
			-0.253453  0.832447  0.492741
			-0.214274  0.897228  0.386094
			-0.078869  0.966298  0.245047
			-0.391851  0.797751  0.458307
			-0.518811  0.679342  0.518969
			-0.804902  0.084534  0.587355
			-0.837501  0.031973  0.545499
			-0.814469 -0.211099  0.540441
			-0.787238  0.087800  0.610367
			-0.880306  0.079793  0.467647
			-0.898764  0.132798  0.417836
			-0.861474  0.180596  0.474602
			-0.868842  0.406734  0.282280
			-0.906486  0.400671  0.133211
			-0.886829  0.458842 -0.054753
			-0.844933  0.502063  0.184450
			-0.934418  0.303627  0.186207
			-0.834345  0.301416  0.461538
			-0.700878  0.617028  0.357837
			-0.791993  0.453987  0.408219
			 0.604331  0.793555 -0.071096
			 0.817442  0.493820  0.296532
			 0.834758  0.467507  0.290888
			 0.835045  0.549338  0.030464
			 0.797360  0.600537 -0.059775
			 0.744315  0.611901 -0.267531
			 0.675844  0.728988 -0.108683
			 0.773246  0.435003 -0.461370
			 0.416965  0.400637 -0.815862
			 0.450727 -0.345343 -0.823155
			 0.337019 -0.447411 -0.828397
			 0.440559 -0.357445 -0.823493
			 0.494326 -0.225256 -0.839584
			 0.513713  0.166924 -0.841567
			 0.342824 -0.110873 -0.932834
			 0.449834  0.092547 -0.888304
			 0.502497  0.162855 -0.849103
			 0.370882  0.296297 -0.880145
			 0.434572  0.217495 -0.873981
			 0.333782  0.459052 -0.823323
			 0.235822  0.480987 -0.844417
			 0.412278 -0.188966 -0.891246
			 0.289361 -0.586001 -0.756884
			 0.342334 -0.545525 -0.764990
			 0.336971 -0.485738 -0.806542
			 0.361458 -0.369259 -0.856152
			-0.157211 -0.215463 -0.963774
			-0.018033 -0.198363 -0.979963
			 0.669726  0.449214 -0.591332
			 0.504330  0.334305 -0.796173
			 0.169270  0.354824 -0.919482
			 0.157133 -0.023466 -0.987299
			-0.001462 -0.250844 -0.968026
			 0.198178  0.308349 -0.930401
			 0.366271  0.357316 -0.859169
			-0.799489 -0.600016  0.028258
			-0.892953 -0.449827 -0.017055
			-0.961532 -0.267667  0.061728
			-0.894219 -0.288748  0.342046
			-0.887351  0.063047  0.456765
			-0.936766 -0.218418  0.273427
			-0.894111 -0.433722  0.111584
			-0.210575 -0.974665  0.075408
			-0.231915 -0.860998  0.452657
			-0.358148 -0.859900  0.363732
			-0.319900 -0.935321  0.151127
			-0.280030 -0.950188 -0.136844
			-0.124373 -0.869850 -0.477381
			-0.028455 -0.759728 -0.649618
			-0.105470 -0.852342 -0.512240
			-0.220928 -0.916103 -0.334585
			-0.233068 -0.890273 -0.391270
			-0.230792 -0.846731 -0.479356
			-0.229489 -0.844131 -0.484539
			 0.247361 -0.720540 -0.647792
			 0.213963 -0.532032 -0.819245
			-0.005527 -0.745568 -0.666407