<?xml version="1.0"?>
<VTKFile type="PolyData" version="0.1" byte_order="LittleEndian" compressor="vtkZLibDataCompressor">
	<PolyData>
		<Piece NumberOfPoints="3280" NumberOfVerts="0" NumberOfLines="0" NumberOfStrips="0" NumberOfPolys="6556">
		<PointData Normals="Normals">
		<DataArray type="Float32" Name="Normals" NumberOfComponents="3" format="ascii">
			-0.197770  0.010895 -0.980188
			-0.210089  0.052605 -0.976266
			-0.369939  0.058628 -0.927204
			-0.437454  0.011925 -0.899162
			 0.004987  0.005172 -0.999974
			-0.286121 -0.024232 -0.957887
			-0.108672 -0.011529 -0.994011
			-0.147135  0.045842 -0.988054
			-0.554389  0.066815 -0.829572
			-0.586170  0.068700 -0.807270
			-0.389704  0.064462 -0.918681
			-0.412985  0.064772 -0.908431
			-0.362697 -0.027139 -0.931512
			-0.531389  0.028993 -0.846632
			-0.608476  0.062458 -0.791111
			 0.175121  0.019467 -0.984355
			 0.082864 -0.050679 -0.995271
			 0.419804 -0.006573 -0.907591
			-0.165694 -0.019352 -0.985987
			-0.160254  0.041090 -0.986220
			 0.188854  0.029336 -0.981567
			-0.027826  0.055400 -0.998076
			-0.641821  0.087516 -0.761845
			-0.602982  0.082398 -0.793488
			-0.685338  0.093594 -0.722186
			-0.697913  0.063186 -0.713390
			-0.587729  0.066953 -0.806283
			-0.481410  0.052960 -0.874894
			-0.729123  0.083691 -0.679246
			-0.749435  0.075438 -0.657766
			-0.333308  0.056166 -0.941143
			-0.406095  0.053324 -0.912274
			 0.434638  0.098792 -0.895170
			 0.948144  0.016387 -0.317419
			-0.274577 -0.026113 -0.961210
			-0.716056  0.065834 -0.694931
			-0.546580  0.012169 -0.837318
			-0.652521  0.055787 -0.755714
			-0.717940  0.076887 -0.691845
			 0.460585 -0.003076 -0.887610
			 0.453479 -0.057366 -0.889419
			 0.325335 -0.065878 -0.943301
			 0.288812 -0.062198 -0.955363
			-0.070982 -0.067983 -0.995158
			 0.259267 -0.082088 -0.962311
			 0.626205 -0.066357 -0.776829
			 0.697415 -0.023058 -0.716296
			-0.099595  0.062429 -0.993068
			 0.085075  0.075299 -0.993525
			 0.560969 -0.004535 -0.827824
			 0.431310  0.058306 -0.900318
			-0.611580  0.104091 -0.784305
			-0.823202  0.137950 -0.550735
			-0.778914  0.120462 -0.615452
			-0.687693  0.111732 -0.717352
			-0.782576  0.086843 -0.616468
			-0.511041  0.070126 -0.856691
			-0.489775  0.109267 -0.864975
			-0.834692  0.124242 -0.536519
			-0.865644  0.108069 -0.488857
			-0.552479  0.092993 -0.828323
			-0.471484  0.109355 -0.875068
			-0.282437  0.091083 -0.954952
			-0.069792  0.090088 -0.993485
			 0.413534  0.065659 -0.908118
			-0.400514 -0.023185 -0.915997
			-0.755750  0.085974 -0.649192
			-0.630755  0.020397 -0.775714
			-0.591125  0.028131 -0.806089
			-0.808583  0.108001 -0.578385
			-0.787832  0.046625 -0.614123
			-0.813779  0.085981 -0.574779
			-0.771576  0.101624 -0.627968
			 0.646944 -0.002475 -0.762533
			 0.517694 -0.072438 -0.852494
			-0.159091 -0.078831 -0.984112
			-0.021482 -0.075760 -0.996895
			 0.491623 -0.096564 -0.865438
			 0.439663 -0.099623 -0.892621
			 0.271485 -0.107001 -0.956476
			 0.686487 -0.077404 -0.723010
			 0.755999 -0.083782 -0.649188
			 0.795670 -0.066478 -0.602072
			 0.764776 -0.012023 -0.644184
			 0.820912 -0.043728 -0.569378
			 0.012821  0.084668 -0.996327
			 0.232791  0.082786 -0.968997
			 0.665846 -0.001540 -0.746088
			 0.731238 -0.002405 -0.682118
			 0.522046  0.047622 -0.851587
			-0.885449  0.109793 -0.451582
			-0.918289  0.143080 -0.369151
			-0.951278  0.133484 -0.277942
			-0.774478  0.125289 -0.620070
			-0.835661  0.122617 -0.535384
			-0.654095  0.108606 -0.748575
			-0.682319  0.103324 -0.723716
			-0.759653  0.121636 -0.638852
			-0.868234  0.113576 -0.482981
			-0.604776  0.103849 -0.789596
			 0.430511  0.119931 -0.894582
			 0.413435  0.115284 -0.903206
			-0.919782  0.143770 -0.365146
			-0.955954  0.110687 -0.271846
			-0.967039  0.124844 -0.221924
			-0.610752  0.106730 -0.784596
			-0.607804  0.113105 -0.785991
			-0.462472  0.127348 -0.877441
			-0.502135  0.148905 -0.851873
			-0.367862  0.137516 -0.919656
			-0.211788  0.128056 -0.968890
			 0.018395  0.096767 -0.995137
			 0.279917  0.071899 -0.957328
			 0.280848  0.080770 -0.956348
			-0.512196 -0.010611 -0.858803
			-0.568063  0.008067 -0.822946
			-0.272986 -0.043344 -0.961041
			-0.669886  0.034031 -0.741684
			-0.879412  0.134090 -0.456787
			-0.891405  0.126847 -0.435095
			-0.815681  0.124109 -0.565033
			-0.856265  0.102234 -0.506319
			-0.942521  0.135183 -0.305580
			-0.768864  0.038152 -0.638273
			-0.868427  0.050083 -0.493281
			-0.890902  0.088428 -0.445505
			 0.635934 -0.101155 -0.765086
			 0.714556 -0.125084 -0.688305
			 0.678625 -0.094732 -0.728351
			 0.719072 -0.119254 -0.684627
			-0.186718 -0.075401 -0.979516
			 0.054442 -0.075051 -0.995692
			 0.643539 -0.126448 -0.754896
			 0.501136 -0.128440 -0.855784
			 0.411268 -0.117922 -0.903855
			 0.493314 -0.140129 -0.858490
			 0.290887 -0.128535 -0.948084
			 0.401371 -0.131633 -0.906407
			 0.861042 -0.124993 -0.492933
			 0.844632 -0.107974 -0.524346
			 0.905452 -0.064022 -0.419593
			 0.846083 -0.051391 -0.530569
			 0.822595 -0.012786 -0.568483
			 0.848865 -0.054195 -0.525824
			 0.820605 -0.031333 -0.570636
			 0.906894 -0.057583 -0.417405
			 0.763682 -0.030420 -0.644876
			 0.720619  0.013778 -0.693195
			 0.613229  0.034857 -0.789136
			-0.893304  0.124276 -0.431931
			-0.909169  0.115126 -0.400198
			-0.923039  0.110276 -0.368562
			-0.991492  0.128811 -0.018727
			-0.974585  0.132823  0.180394
			-0.985743  0.134546 -0.101035
			-0.962757  0.137840 -0.232594
			-0.874511  0.121183 -0.469622
			-0.513183  0.124698 -0.849172
			-0.683126  0.121636 -0.720099
			-0.787621  0.130433 -0.602196
			-0.847998  0.140160 -0.511131
			-0.942651  0.126572 -0.308849
			-0.966367  0.113450 -0.230791
			 0.424994  0.137633 -0.894672
			-0.984443  0.112700 -0.134802
			-0.993183  0.104089  0.052465
			-0.656722  0.129487 -0.742933
			-0.628783  0.120472 -0.768192
			-0.646554  0.152602 -0.747449
			-0.481204  0.146927 -0.864208
			-0.507082  0.190197 -0.840650
			-0.348410  0.161385 -0.923345
			-0.029145  0.122953 -0.991985
			-0.218727  0.165532 -0.961643
			 0.343777  0.076364 -0.935941
			 0.518462  0.022781 -0.854797
			 0.508130  0.039872 -0.860357
			-0.501249 -0.008679 -0.865260
			-0.626837  0.045492 -0.777821
			-0.329747 -0.053264 -0.942566
			-0.952348  0.131131 -0.275385
			-0.911795  0.141614 -0.385455
			-0.955704  0.161370 -0.246148
			-0.987197  0.159485  0.002493
			-0.959665  0.168721 -0.224891
			-0.899024  0.151376 -0.410903
			-0.969900  0.156454  0.186589
			-0.985937  0.165998  0.019328
			-0.845288  0.191184 -0.498936
			-0.912470  0.141410 -0.383928
			-0.901966  0.030863 -0.430703
			-0.746150 -0.010621 -0.665693
			-0.622122 -0.033816 -0.782190
			-0.935168  0.071983 -0.346814
			-0.941091  0.110087 -0.319733
			 0.784427 -0.125219 -0.607449
			 0.854390 -0.125310 -0.504297
			 0.820124 -0.111194 -0.561277
			 0.826432 -0.155562 -0.541120
			-0.362214 -0.072584 -0.929265
			-0.317873 -0.093941 -0.943468
			-0.020521 -0.113349 -0.993343
			 0.634847 -0.150122 -0.757914
			 0.778300 -0.156223 -0.608148
			 0.685065 -0.168964 -0.708616
			 0.690202 -0.204088 -0.694240
			 0.474682 -0.154472 -0.866496
			 0.163790 -0.175942 -0.970679
			 0.520847 -0.205711 -0.828493
			 0.466433 -0.222583 -0.856094
			 0.920418 -0.101347 -0.377571
			 0.928470 -0.102643 -0.356943
			 0.986311 -0.072832 -0.147937
			 0.989625 -0.052512 -0.133738
			 0.821373 -0.010710 -0.570290
			 0.879928 -0.045771 -0.472897
			 0.955466 -0.044304 -0.291756
			 0.984173 -0.084997 -0.155498
			 0.841602  0.023097 -0.539604
			 0.753184  0.008789 -0.657751
			 0.623476  0.039471 -0.780845
			-0.972614  0.091446  0.213679
			-0.899689  0.088173  0.427535
			-0.986948  0.147803  0.063941
			-0.873245  0.100684  0.476766
			-0.915082  0.123191  0.383991
			-0.874364  0.104131  0.473967
			-0.958281  0.126346  0.256387
			-0.982168  0.153439 -0.108637
			-0.774857  0.151080 -0.613817
			-0.795748  0.142003 -0.588745
			-0.879212  0.123460 -0.460156
			-0.991859  0.125289  0.022786
			-0.949604  0.135279 -0.282757
			-0.987178  0.132984  0.088285
			-0.951866  0.121649  0.281342
			-0.943532  0.088614  0.319210
			-0.691302  0.129689 -0.710832
			-0.650102  0.157828 -0.743275
			-0.519544  0.169193 -0.837525
			-0.695374  0.145912 -0.703679
			-0.550527  0.148102 -0.821575
			-0.714684  0.130484 -0.687168
			-0.577573  0.187988 -0.794399
			-0.427217  0.148920 -0.891801
			-0.608471  0.187492 -0.771109
			-0.319498  0.147383 -0.936055
			-0.044536  0.162097 -0.985769
			 0.253383  0.150799 -0.955540
			-0.307852  0.167296 -0.936610
			-0.163571  0.179683 -0.970030
			-0.095734  0.160091 -0.982449
			 0.599904  0.115428 -0.791701
			 0.427210  0.126894 -0.895204
			-0.430471 -0.052821 -0.901057
			-0.972990  0.166951 -0.159431
			-0.951644  0.152588  0.266629
			-0.984675  0.167216  0.049541
			 0.181165  0.458389 -0.870091
			 0.890939  0.194894 -0.410175
			 0.823433  0.196726 -0.532218
			-0.964527  0.144432  0.220967
			-0.886294  0.154148  0.436716
			-0.848108  0.117917  0.516534
			-0.877448  0.129153  0.461957
			-0.950487  0.180627  0.252880
			-0.939916  0.156305  0.303525
			-0.876987 -0.017740 -0.480186
			-0.958983  0.071689 -0.274250
			-0.977700  0.058290 -0.201755
			-0.934566 -0.000447 -0.355790
			-0.873876  0.002943 -0.486139
			-0.508833 -0.042825 -0.859799
			-0.534768 -0.038951 -0.844101
			-0.712100 -0.054527 -0.699958
			-0.504509 -0.059917 -0.861325
			-0.848423 -0.000851 -0.529319
			-0.932577  0.192584 -0.305306
			-0.988196  0.132596 -0.076731
			-0.976481  0.090920 -0.195496
			 0.899512 -0.124498 -0.418782
			 0.968368 -0.114783 -0.221560
			-0.269740 -0.122727 -0.955080
			-0.010150 -0.140373 -0.990047
			 0.892604 -0.166607 -0.418927
			 0.827938 -0.236204 -0.508651
			 0.657690 -0.253574 -0.709326
			 0.759570 -0.272714 -0.590492
			 0.637848 -0.195102 -0.745040
			 0.275912 -0.246407 -0.929062
			 0.214754 -0.204510 -0.955017
			 0.437223 -0.228077 -0.869952
			 0.522846 -0.270896 -0.808237
			 0.997003 -0.076452 -0.011814
			 0.984955 -0.021012  0.171526
			 0.981350 -0.070362  0.178890
			 0.997898 -0.060227  0.023934
			 0.989957 -0.044973  0.134028
			 0.882623  0.014835 -0.469848
			 0.919639 -0.098056 -0.380329
			 0.930902 -0.046814 -0.362256
			 0.935840 -0.023287 -0.351655
			 0.997831 -0.052325 -0.039945
			 0.954411 -0.097204 -0.282225
			 0.997796 -0.027785  0.060251
			 0.999453 -0.025035  0.021616
			 0.856208  0.023840 -0.516081
			 0.915404  0.037408 -0.400795
			 0.912729  0.016743 -0.408221
			 0.909211  0.026999 -0.415459
			 0.828590  0.051362 -0.557495
			 0.741672  0.048594 -0.669000
			-0.747665  0.120359  0.653078
			-0.785141  0.084481  0.613528
			-0.784318  0.103588  0.611649
			-0.954307  0.139985  0.264013
			-0.899796  0.130359  0.416381
			-0.893015  0.148485  0.424826
			-0.661667  0.076503  0.745885
			-0.721992  0.091802  0.685785
			-0.778571  0.113651  0.617180
			-0.767290  0.133365 -0.627280
			-0.812379  0.132214 -0.567943
			-0.829841  0.150572 -0.537301
			-0.808399  0.123888 -0.575450
			-0.877425  0.121963 -0.463952
			-0.988088  0.147613 -0.043513
			-0.972900  0.114778  0.200729
			-0.932328  0.116706  0.342263
			-0.929110  0.167338  0.329775
			-0.909814  0.144503 -0.389048
			-0.836552  0.123329  0.533827
			-0.884791  0.125839  0.448676
			-0.808922  0.152876  0.567691
			 0.745811  0.140562 -0.651160
			-0.563654  0.180485 -0.806052
			-0.666713  0.202904 -0.717163
			-0.560489  0.197052 -0.804377
			 0.389920  0.170123 -0.904998
			-0.792337  0.157212 -0.589480
			-0.824972  0.125055 -0.551165
			-0.608319  0.179922 -0.773030
			-0.433545  0.212236 -0.875782
			 0.128563  0.171890 -0.976691
			 0.574445  0.178556 -0.798831
			 0.430971  0.183151 -0.883584
			 0.441070  0.168960 -0.881425
			-0.242340  0.211980 -0.946750
			-0.337089  0.206879 -0.918462
			 0.092439  0.196114 -0.976214
			 0.051719  0.165446 -0.984862
			-0.103956  0.192839 -0.975708
			 0.772672  0.141582 -0.618816
			-0.859992  0.146082  0.488953
			-0.955642  0.181483  0.231976
			-0.894273  0.153613  0.420332
			-0.925222  0.180356  0.333821
			-0.723345  0.113003  0.681177
			-0.794083  0.109942  0.597783
			-0.721625  0.086267  0.686888
			-0.792566  0.122046  0.597447
			-0.879915  0.182748  0.438580
			-0.967890  0.116101 -0.222957
			-0.988276  0.088764 -0.124223
			-0.985552  0.032131 -0.166296
			-0.994114  0.070344 -0.082391
			-0.836142 -0.049440 -0.546280
			-0.971702 -0.013164 -0.235843
			-0.927197 -0.048045 -0.371481
			-0.868263 -0.066588 -0.491615
			-0.848748 -0.052840 -0.526151
			-0.500151 -0.105103 -0.859536
			-0.688039 -0.094469 -0.719499
			-0.574465 -0.089315 -0.813642
			-0.964539  0.139759  0.223900
			-0.989958  0.140172  0.018315
			-0.973232  0.150159 -0.173989
			 0.988173 -0.125298 -0.088401
			 0.991392 -0.082804  0.101420
			-0.483672 -0.124885 -0.866294
			-0.232117 -0.163590 -0.958833
			-0.067416 -0.190004 -0.979466
			 0.065616 -0.228177 -0.971406
			 0.921423 -0.165800 -0.351411
			 0.964014 -0.139220 -0.226483
			 0.903562 -0.236294 -0.357409
			 0.877991 -0.291953 -0.379335
			 0.927314 -0.246423 -0.281716
			 0.776968 -0.325430 -0.538903
			 0.624698 -0.368285 -0.688563
			 0.373074 -0.207626 -0.904272
			 0.386915 -0.214153 -0.896903
			 0.271357 -0.281278 -0.920461
			 0.490702 -0.217469 -0.843753
			 0.455762 -0.222744 -0.861781
			 0.484907 -0.354716 -0.799401
			 0.386858 -0.305665 -0.870005
			 0.950707 -0.056935  0.304818
			 0.916508 -0.032821  0.398668
			 0.941035 -0.034766  0.336520
			 0.874894 -0.007553  0.484255
			 0.929742 -0.064719  0.362479
			 0.952246 -0.050668  0.301098
			 0.934105  0.004227 -0.356974
			 0.989391 -0.006439 -0.145133
			 0.991761 -0.090710 -0.090448
			 0.947746 -0.017825 -0.318529
			 0.977431 -0.047990  0.205731
			 0.979589 -0.030869  0.198625
			 0.948230 -0.019310  0.316998
			 0.908796  0.035034 -0.415768
			 0.937759  0.002773 -0.347276
			 0.953713  0.002602 -0.300708
			 0.926288  0.038180 -0.374876
			 0.978015  0.008568 -0.208359
			 0.981711  0.018827 -0.189442
			 0.909722  0.074760 -0.408431
			 0.839570  0.129280 -0.527645
			 0.983323  0.028300  0.179654
			 0.752785  0.094984  0.651378
			-0.630177  0.108675  0.768808
			-0.653039  0.067483  0.754312
			-0.845805  0.127983  0.517913
			-0.767960  0.092419  0.633795
			-0.855695  0.147786  0.495928
			-0.519062  0.056582  0.852861
			-0.603337  0.048287  0.796023
			-0.510068  0.049950  0.858683
			-0.539853  0.075231  0.838391
			-0.650932  0.072207  0.755694
			-0.676990  0.083654  0.731222
			-0.963243  0.179171  0.200150
			-0.973619  0.163436  0.159230
			-0.952225  0.180168 -0.246591
			-0.976993  0.211316  0.028808
			-0.888008  0.123161  0.443026
			-0.910051  0.186776 -0.370030
			-0.867641  0.178882 -0.463896
			-0.656953  0.085355  0.749084
			-0.634631  0.059157  0.770548
			-0.761852  0.109718  0.638392
			-0.748275  0.113138  0.653670
			-0.800301  0.118728  0.587727
			 0.756349  0.133716  0.640356
			 0.398269  0.220403 -0.890396
			-0.542991  0.220606 -0.810243
			-0.690986  0.264988 -0.672547
			-0.718804  0.216198 -0.660741
			-0.712890  0.165515 -0.681464
			-0.598128  0.305142 -0.741034
			-0.685242  0.169311 -0.708363
			-0.879379  0.188791 -0.437093
			-0.745443  0.160778 -0.646888
			-0.764543  0.163604 -0.623465
			-0.702952  0.165587 -0.691693
			-0.352817  0.332777 -0.874517
			-0.322306  0.231507 -0.917891
			 0.666376  0.181623 -0.723157
			 0.368171  0.199671 -0.908065
			 0.547392  0.190246 -0.814965
			-0.164750  0.285067 -0.944243
			 0.152735  0.072890 -0.985575
			 0.068213  0.147624 -0.986688
			 0.267793  0.122635 -0.955640
			 0.020419  0.218171 -0.975697
			 0.635347  0.191740 -0.748045
			 0.770604  0.167802 -0.614826
			-0.874150  0.111987  0.472567
			-0.709699  0.132663  0.691902
			-0.789660  0.125653  0.600539
			-0.760353  0.119302  0.638460
			-0.556004  0.071016  0.828140
			-0.654036  0.080634  0.752153
			-0.590913  0.083379  0.802415
			-0.980536  0.127747 -0.149099
			-0.992218  0.091163 -0.084811
			-0.991949 -0.022380 -0.124647
			-0.996322  0.061391 -0.059778
			-0.945065 -0.110970 -0.307469
			-0.893543 -0.060660 -0.444861
			-0.689408 -0.149256 -0.708830
			-0.783115 -0.159465 -0.601084
			-0.487283 -0.175753 -0.855375
			-0.953156  0.132127  0.272097
			-0.976665  0.166499  0.135661
			-0.993438  0.114124  0.007565
			 0.966124 -0.077608  0.246132
			 0.986356 -0.147318 -0.073472
			 0.925666 -0.075571  0.370718
			-0.064144 -0.266154 -0.961794
			-0.262445 -0.233599 -0.936245
			-0.003158 -0.304542 -0.952494
			 0.952909 -0.303191  0.006265
			 0.901392 -0.353879 -0.249523
			 0.981045 -0.192729  0.020147
			 0.828788 -0.389611 -0.401639
			 0.729802 -0.413679 -0.544296
			 0.713649 -0.364077 -0.598459
			 0.767524 -0.416569 -0.487214
			 0.343031 -0.371049 -0.862932
			 0.280978 -0.467559 -0.838117
			 0.140947 -0.460214 -0.876548
			 0.478431 -0.353071 -0.804018
			 0.817335 -0.032871  0.575225
			 0.752397 -0.008303  0.658658
			 0.823269 -0.017197  0.567391
			 0.695385  0.011799  0.718540
			 0.987946  0.050058  0.146485
			 0.985797  0.016428  0.167135
			 0.944139 -0.009150  0.329421
			 0.925116 -0.026795  0.378738
			 0.898875 -0.013834  0.437987
			 0.936373 -0.001880  0.351002
			 0.837537  0.003884  0.546367
			 0.943192  0.027512 -0.331108
			 0.947315  0.009567 -0.320161
			 0.994253 -0.009908 -0.106594
			 0.999834  0.011107 -0.014476
			 0.998485  0.023004 -0.049979
			 0.987352  0.014847  0.157850
			 0.906859  0.099361 -0.409554
			 0.951047  0.048085 -0.305283
			 0.991025  0.043467 -0.126411
			 0.850691  0.186412 -0.491503
			 0.661834  0.132641  0.737823
			-0.700331  0.099621  0.706832
			-0.500860  0.063295  0.863211
			-0.703679  0.089537  0.704854
			-0.478747  0.041036  0.876993
			-0.395255  0.065561  0.916229
			-0.410942  0.060179  0.909673
			-0.413614  0.065511  0.908092
			-0.435267  0.051894  0.898805
			-0.405040  0.054511  0.912673
			-0.258796  0.063818  0.963822
			-0.429682  0.073698  0.899968
			-0.565531  0.073192  0.821473
			-0.960329  0.147965  0.236378
			-0.886612  0.134219  0.442610
			-0.898652  0.227380  0.375130
			-0.915630  0.134910  0.378710
			-0.937742  0.191523 -0.289757
			-0.903354  0.287257  0.318489
			-0.937374  0.277243 -0.210870
			-0.940287  0.328686  0.088460
			-0.537539  0.046026  0.841982
			-0.691989  0.085312  0.716849
			-0.627659  0.113616  0.770153
			-0.688322  0.082326  0.720719
			-0.658675  0.046738  0.750974
			-0.544934  0.106950  0.831630
			-0.610135  0.106880  0.785055
			-0.678692  0.108907  0.726303
			-0.624636  0.148493  0.766668
			-0.776399  0.171187  0.606547
			-0.784769  0.248322 -0.567868
			-0.762676  0.278273 -0.583857
			-0.745140  0.207170 -0.633914
			-0.552261  0.397754 -0.732666
			-0.684920  0.319362 -0.654899
			-0.856065  0.199602 -0.476773
			-0.192792  0.386563 -0.901887
			-0.059342  0.377808 -0.923980
			-0.305240  0.442178 -0.843391
			 0.538032  0.141829 -0.830907
			-0.067262  0.340772 -0.937737
			 0.024012  0.277672 -0.960376
			 0.155915  0.191097 -0.969109
			 0.365915  0.120343 -0.922835
			 0.341166  0.054789 -0.938405
			 0.518254  0.083115 -0.851179
			 0.111693  0.233901 -0.965823
			 0.676589  0.146836 -0.721572
			-0.643283  0.151450  0.750499
			-0.779058  0.127931  0.613761
			-0.926539  0.121922  0.355894
			-0.520648  0.103836  0.847434
			-0.643872  0.136179  0.752917
			-0.447976  0.121395  0.885766
			-0.498414  0.064388  0.864545
			-0.401550  0.066090  0.913449
			-0.431145  0.060081  0.900280
			-0.424094  0.077481  0.902298
			-0.351060  0.083932  0.932584
			-0.350135  0.067100  0.934293
			-0.352881  0.063667  0.933500
			-0.998456 -0.004704 -0.055355
			-0.981617 -0.184144  0.050197
			-0.996217 -0.086872  0.002073
			-0.976614 -0.166411 -0.136135
			-0.996403  0.084719 -0.001729
			-0.997147 -0.035965 -0.066371
			-0.997273  0.024905  0.069479
			-0.995539  0.076503  0.055225
			-0.904807 -0.194388 -0.378865
			-0.833369 -0.175859 -0.523994
			-0.432688 -0.218392 -0.874692
			-0.476834 -0.243736 -0.844525
			-0.714585 -0.184360 -0.674819
			-0.960526  0.083209  0.265454
			-0.993791  0.072847  0.084097
			 0.863760 -0.036075  0.502610
			 0.787582 -0.057114  0.613557
			 0.908560 -0.103041  0.404846
			 0.966456 -0.105979  0.233950
			 0.981578 -0.103868  0.160365
			 0.813782 -0.051223  0.578909
			-0.111910 -0.397828 -0.910609
			-0.294810 -0.310529 -0.903691
			-0.155057 -0.389359 -0.907941
			-0.080091 -0.465628 -0.881349
			 0.913072 -0.395840 -0.098025
			 0.895036 -0.408438  0.179133
			 0.877149 -0.352959  0.325623
			 0.961998 -0.234871  0.139267
			 0.929379 -0.283500  0.236396
			 0.969181 -0.122428  0.213776
			 0.966889 -0.166017  0.193813
			 0.894283 -0.442678 -0.065530
			 0.844167 -0.423440 -0.328756
			 0.812393 -0.411340 -0.413300
			 0.859791 -0.275642 -0.429862
			 0.717025 -0.290867 -0.633459
			 0.489647 -0.421953 -0.763021
			 0.280533 -0.627238 -0.726549
			-0.039582 -0.544480 -0.837839
			 0.178537 -0.617824 -0.765779
			 0.601749  0.011954  0.798596
			 0.698994 -0.009051  0.715070
			 0.566999  0.025360  0.823328
			 0.721610  0.006675  0.692267
			 0.631987  0.007274  0.774945
			 0.598506  0.011221  0.801040
			 0.974300  0.021073  0.224268
			 0.897739  0.002498  0.440521
			 0.918852  0.010293  0.394468
			 0.959747 -0.025073  0.279743
			 0.877001  0.010946  0.480364
			 0.829677 -0.007738  0.558190
			 0.743344  0.020862  0.668584
			 0.728192  0.011723  0.685273
			 0.753097  0.026897  0.657359
			 0.993585 -0.002198  0.113066
			 0.969493 -0.004257  0.245083
			 0.951552  0.033991  0.305603
			 0.944993  0.029283  0.325777
			 0.966514  0.052926 -0.251097
			 0.949252  0.139996 -0.281642
			 0.984790  0.057806  0.163853
			 0.990993  0.008156  0.133667
			 0.997816  0.013793 -0.064601
			 0.987228  0.035722  0.155257
			 0.893250  0.295270 -0.338998
			 0.763064  0.260232 -0.591619
			 0.929985  0.195423 -0.311347
			 0.931231  0.279181 -0.234234
			-0.618411  0.095841  0.779988
			-0.496095  0.094117  0.863152
			-0.431752  0.058147  0.900116
			-0.504256  0.076347  0.860172
			-0.472464  0.054232  0.879680
			-0.167500  0.043251  0.984923
			-0.098840  0.038040  0.994376
			-0.516589  0.065796  0.853702
			-0.450220  0.061241  0.890815
			-0.339931  0.035737  0.939771
			-0.245771  0.061877  0.967351
			-0.394563  0.058047  0.917034
			-0.263451  0.077798  0.961531
			-0.220701  0.038499  0.974581
			 0.134757  0.041014  0.990030
			 0.040768  0.042437  0.998267
			 0.080124  0.066466  0.994566
			-0.410484  0.032861  0.911276
			-0.811690  0.225027  0.539001
			-0.773511  0.212394  0.597135
			-0.800151  0.274273  0.533416
			-0.903153  0.319612  0.286642
			-0.873283  0.316724 -0.370219
			-0.930382  0.352849 -0.099437
			-0.923473  0.320792  0.210453
			-0.555089  0.064002  0.829325
			-0.456778  0.054144  0.887931
			-0.479284  0.067938  0.875027
			-0.396437  0.032810  0.917475
			-0.432135  0.036521  0.901069
			-0.492776  0.042071  0.869139
			-0.534016  0.083462  0.841345
			-0.640602  0.084290  0.763233
			-0.623379  0.130922  0.770881
			-0.581212  0.113441  0.805806
			-0.594202  0.089954  0.799270
			-0.459120  0.106693  0.881944
			-0.874394  0.202150 -0.441102
			-0.821621  0.132246 -0.554482
			-0.871868  0.186273 -0.452934
			-0.729558  0.289151 -0.619788
			-0.704916  0.068386 -0.705986
			-0.666044  0.214883 -0.714290
			-0.797296  0.276224 -0.536675
			-0.732144  0.341326 -0.589459
			-0.532295  0.435188 -0.726136
			-0.797963  0.343050 -0.495553
			-0.433451  0.441375 -0.785689
			 0.137455  0.277075 -0.950966
			-0.010321  0.386431 -0.922261
			 0.077807  0.267489 -0.960414
			-0.387897  0.424752 -0.817998
			-0.139195  0.393593 -0.908685
			 0.292779  0.202919 -0.934401
			 0.470079  0.154404 -0.869014
			 0.508108  0.113885 -0.853731
			 0.564811  0.153969 -0.810729
			-0.585480  0.147829  0.797094
			-0.376333  0.149005  0.914424
			-0.331296  0.170063  0.928074
			-0.406078  0.150818  0.901307
			-0.776094  0.127328  0.617629
			-0.705729  0.153469  0.691660
			-0.852089  0.134337  0.505863
			-0.295175  0.108843  0.949223
			-0.370894  0.036468  0.927959
			-0.309273  0.078218  0.947751
			-0.091390  0.081786  0.992451
			-0.151769  0.102907  0.983044
			-0.966492 -0.256688 -0.002126
			-0.967368 -0.251914  0.027177
			-0.962667 -0.237210  0.130396
			-0.962054 -0.200388 -0.185195
			-0.978913 -0.154843 -0.133238
			-0.978533 -0.175942 -0.107325
			-0.927170 -0.215978 -0.306121
			-0.988443 -0.122657 -0.089081
			-0.919565  0.064171  0.387662
			-0.938921  0.093168  0.331281
			-0.896340 -0.043719  0.441206
			-0.987025 -0.086956  0.134984
			-0.913499  0.085546  0.397745
			-0.738984 -0.134506 -0.660160
			-0.776941 -0.181736 -0.602772
			-0.754123 -0.119142 -0.645836
			-0.403131 -0.240790 -0.882896
			-0.639434 -0.149306 -0.754209
			-0.840737  0.116654  0.528728
			 0.896719 -0.102233  0.430632
			 0.785523 -0.084040  0.613099
			 0.589235 -0.014488  0.807832
			 0.619864 -0.035496  0.783906
			 0.581826 -0.008767  0.813266
			 0.910774 -0.101936  0.400126
			 0.907547 -0.093586  0.409390
			-0.202309 -0.393085 -0.896970
			-0.244009 -0.449251 -0.859438
			-0.193751 -0.426076 -0.883697
			-0.146862 -0.502847 -0.851808
			-0.504154 -0.258007 -0.824173
			-0.570484 -0.163839 -0.804801
			-0.554020 -0.202068 -0.807608
			-0.194993 -0.501014 -0.843186
			-0.212936 -0.527314 -0.822556
			-0.255609 -0.460291 -0.850174
			-0.131866 -0.485998 -0.863955
			 0.880738 -0.394526  0.262011
			 0.878562 -0.300732  0.371066
			 0.927261 -0.193571  0.320495
			 0.951284 -0.114475  0.286276
			 0.907941 -0.102114  0.406466
			 0.878933 -0.467639 -0.093759
			 0.896053 -0.358157 -0.262321
			 0.858415 -0.241127 -0.452748
			 0.850616 -0.319163 -0.417836
			 0.863102 -0.272818 -0.425001
			 0.730774 -0.360020 -0.579961
			 0.605596 -0.533968 -0.590027
			 0.407024 -0.640479 -0.651244
			 0.281714 -0.609409 -0.741120
			-0.014001 -0.578661 -0.815448
			 0.254178 -0.523350 -0.813325
			 0.335205  0.037679  0.941391
			 0.522930  0.003387  0.852369
			 0.433073  0.023375  0.901056
			 0.637319  0.022250  0.770278
			 0.482189  0.007449  0.876035
			 0.970626  0.011479  0.240319
			 0.926200 -0.001666  0.377028
			 0.910656  0.037844  0.411429
			 0.806083  0.014557  0.591623
			 0.641352  0.019976  0.766986
			 0.455388  0.023563  0.889981
			 0.649847  0.013524  0.759945
			 0.967833  0.015263  0.251132
			 0.929091  0.011089  0.369686
			 0.909892  0.009446  0.414737
			 0.945257  0.034711  0.324475
			 0.986449  0.076081 -0.145363
			 0.988252  0.046954 -0.145441
			 0.998474  0.041308 -0.036661
			 0.989918  0.141476 -0.006790
			 0.973508  0.223975 -0.046018
			 0.965416  0.005856  0.260649
			 0.992613  0.052552  0.109348
			 0.962183  0.053320  0.267133
			 0.822585  0.346949 -0.450533
			 0.908543  0.378431 -0.177032
			 0.677720  0.291275 -0.675170
			 0.583029  0.226942 -0.780112
			 0.959501  0.281573 -0.008591
			-0.430452  0.076158  0.899395
			-0.547401  0.044351  0.835695
			-0.444142  0.043925  0.894879
			 0.326425  0.050582  0.943869
			-0.290451  0.002271  0.956887
			-0.030742  0.015309  0.999410
			 0.070995  0.057956  0.995792
			 0.076319  0.042105  0.996194
			-0.452960  0.044794  0.890405
			-0.510023  0.019989  0.859928
			-0.392769  0.009603  0.919587
			 0.109992  0.050551  0.992646
			 0.088276  0.054671  0.994595
			 0.012450  0.053652  0.998482
			 0.298336  0.017243  0.954305
			-0.676668  0.184557  0.712783
			-0.822478  0.309448  0.477254
			-0.649592  0.255512  0.716061
			-0.877499  0.364040 -0.312203
			-0.943961  0.323942  0.063238
			-0.936319  0.227518  0.267473
			-0.893790  0.247059  0.374302
			-0.851032  0.287161  0.439639
			-0.575169  0.061452  0.815724
			-0.585803  0.072618  0.807194
			-0.457977  0.066425  0.886479
			-0.420822  0.078655  0.903727
			-0.403719  0.058410  0.913017
			-0.465272  0.070947  0.882320
			-0.421664  0.039679  0.905883
			-0.425830 -0.002592  0.904799
			-0.470734  0.011003  0.882207
			-0.422945  0.014098  0.906045
			-0.519340  0.011994  0.854483
			-0.482745  0.049436  0.874364
			-0.529748  0.149235  0.834923
			-0.619398  0.097336  0.779019
			-0.920739  0.021795 -0.389571
			-0.894467  0.203493 -0.398146
			-0.861886  0.076227 -0.501340
			-0.941573  0.072913 -0.328823
			-0.912260  0.254404 -0.321031
			-0.962769  0.199182 -0.182764
			-0.654145  0.232856 -0.719634
			-0.724970 -0.083101 -0.683749
			-0.744299  0.052068 -0.665813
			-0.706377  0.110994 -0.699079
			-0.767411  0.149844 -0.623400
			-0.741762 -0.107584 -0.661978
			-0.759417  0.324537 -0.563881
			-0.859902  0.313379 -0.402943
			-0.702337  0.462222 -0.541362
			-0.498038  0.479222 -0.722707
			-0.312327  0.436949 -0.843521
			-0.381175  0.428934 -0.818976
			-0.921875  0.359111 -0.145555
			-0.836327  0.418421 -0.354233
			 0.106980  0.281881 -0.953466
			 0.208275  0.179341 -0.961488
			-0.123918  0.362307 -0.923785
			 0.351660  0.249825 -0.902177
			 0.347957  0.231131 -0.908573
			 0.315575  0.254244 -0.914206
			 0.267642  0.180399 -0.946480