<?xml version="1.0"?>
<VTKFile type="PolyData" version="0.1" byte_order="LittleEndian" compressor="vtkZLibDataCompressor">
	<PolyData>
		<Piece NumberOfPoints="4230" NumberOfVerts="0" NumberOfLines="0" NumberOfStrips="0" NumberOfPolys="8456">
		<PointData Normals="Normals">
		<DataArray type="Float32" Name="Normals" NumberOfComponents="3" format="ascii">
			 0.072736 -0.947868  0.310252
			 0.283525 -0.858195  0.427920
			 0.132503 -0.868131  0.478321
			 0.009778 -0.866674  0.498780
			 0.352385 -0.894168  0.276203
			-0.000216 -0.994521  0.104539
			 0.160712 -0.972187  0.170362
			-0.031959 -0.939256  0.341726
			-0.166813 -0.968790  0.183357
			-0.106277 -0.989429  0.098664
			 0.236980 -0.809896  0.536572
			 0.567416 -0.734911  0.371409
			 0.441294 -0.780770  0.442332
			 0.337468 -0.786631  0.517036
			 0.143305 -0.747555  0.648557
			-0.169221 -0.771226  0.613657
			-0.238744 -0.905917  0.349738
			 0.320831 -0.941226  0.105646
			 0.495301 -0.858829  0.130725
			 0.158460 -0.987347  0.006057
			 0.034742 -0.998888 -0.031860
			-0.144723 -0.984694 -0.097122
			-0.308040 -0.940690  0.142174
			-0.313439 -0.947208 -0.067482
			 0.330193 -0.714853  0.616407
			 0.755891 -0.534272  0.378395
			 0.646856 -0.632666  0.425807
			 0.644608 -0.634454  0.426555
			 0.684585 -0.702372  0.194978
			 0.513089 -0.655781  0.553796
			-0.105125 -0.732251  0.672872
			 0.367509 -0.668737  0.646319
			 0.163998 -0.727718  0.665981
			-0.036302 -0.669980  0.741491
			 0.114926 -0.636880  0.762348
			 0.076748 -0.708651  0.701372
			-0.265893 -0.742043  0.615365
			-0.355982 -0.801421  0.480625
			-0.375165 -0.742868  0.554435
			-0.434135 -0.867648  0.242310
			-0.273205 -0.945055  0.179525
			 0.336321 -0.941671 -0.012014
			 0.609474 -0.792675  0.014425
			 0.447973 -0.892407 -0.054123
			 0.198389 -0.966271 -0.164204
			 0.020589 -0.982163 -0.186902
			-0.187000 -0.946089 -0.264475
			-0.411521 -0.909331  0.061387
			-0.366487 -0.906116 -0.211285
			-0.493002 -0.864271 -0.099924
			 0.423533 -0.586443  0.690438
			 0.660980 -0.581523  0.474275
			 0.853354 -0.395952  0.339131
			 0.914273 -0.284758  0.288127
			 0.874262 -0.390341  0.288616
			 0.681302 -0.571054  0.457958
			 0.772956 -0.628864  0.084073
			 0.642699 -0.512936  0.569065
			 0.519035 -0.521395  0.677311
			-0.212986 -0.733879  0.645026
			 0.271578 -0.640959  0.717926
			 0.409734 -0.514779  0.753074
			 0.047630 -0.601064  0.797780
			-0.161239 -0.652124  0.740768
			-0.083138 -0.535929  0.840159
			-0.016489 -0.504274  0.863386
			 0.315081 -0.488650  0.813600
			 0.162676 -0.477982  0.863174
			-0.514312 -0.782890  0.350094
			-0.617978 -0.712028  0.333347
			-0.318221 -0.693101  0.646797
			-0.549709 -0.661336  0.510348
			-0.629032 -0.770465  0.103456
			 0.338293 -0.909083 -0.243161
			 0.496377 -0.856838 -0.139426
			 0.553250 -0.817559 -0.159723
			 0.743727 -0.667232  0.040885
			 0.745726 -0.666104 -0.014086
			 0.087668 -0.921218 -0.379040
			-0.196612 -0.914474 -0.353669
			-0.485244 -0.849051 -0.208927
			-0.428617 -0.853800 -0.295487
			-0.600796 -0.785902 -0.146296
			 0.490243 -0.445942  0.748865
			 0.738757 -0.419624  0.527403
			 0.781529 -0.431453  0.450622
			 0.864639 -0.450335  0.222705
			 0.920112 -0.358597  0.157486
			 0.959303 -0.199828  0.199517
			 0.861449 -0.457946  0.219524
			 0.890757 -0.201074  0.407580
			 0.857160 -0.400259  0.324143
			 0.904481 -0.421248  0.066821
			 0.890711 -0.441861 -0.106736
			 0.642985 -0.426449  0.636169
			 0.425192 -0.349290  0.834990
			 0.282107 -0.391900  0.875688
			-0.126755 -0.529958  0.838498
			-0.298339 -0.604449  0.738672
			-0.000255 -0.408712  0.912663
			 0.109595 -0.407091  0.906789
			-0.771447 -0.583641  0.253441
			-0.727733 -0.667801  0.156352
			-0.717664 -0.596689  0.359056
			-0.718574 -0.586957  0.373005
			-0.725466 -0.607687  0.323133
			-0.669766 -0.531241  0.518842
			-0.682997 -0.477825  0.552447
			-0.546122 -0.528580  0.649888
			-0.696972 -0.714901  0.056097
			 0.422689 -0.849723 -0.315126
			 0.287708 -0.857373 -0.426773
			 0.716208 -0.679281 -0.160071
			 0.498862 -0.786040 -0.365073
			 0.845761 -0.530004  0.061520
			 0.880118 -0.472528 -0.045928
			 0.070829 -0.881660 -0.466538
			-0.227987 -0.881382 -0.413748
			-0.444746 -0.763253 -0.468664
			-0.521641 -0.767661 -0.372272
			-0.514720 -0.758352 -0.399958
			-0.607341 -0.704520 -0.367136
			-0.717146 -0.696883 -0.007449
			-0.736645 -0.663413 -0.131294
			 0.698140 -0.329796  0.635480
			 0.724894 -0.363276  0.585285
			 0.715847 -0.384128  0.583103
			 0.780335 -0.477082  0.404314
			 0.768787 -0.632696  0.093068
			 0.837285 -0.536878 -0.103518
			 0.784850 -0.598176  0.161853
			 0.751855 -0.437174  0.493551
			 0.648110 -0.477607  0.593165
			 0.662915 -0.536944  0.521762
			 0.803557 -0.545446  0.238296
			 0.847753 -0.527614  0.054209
			 0.302083 -0.326191  0.895737
			 0.378789 -0.250572  0.890917
			 0.652844 -0.228625  0.722167
			 0.475544 -0.183805  0.860275
			 0.107743 -0.374116  0.921102
			 0.161321 -0.343659  0.925135
			-0.117362 -0.502389  0.856640
			-0.194555 -0.492985  0.848006
			-0.356297 -0.520876  0.775719
			 0.082660 -0.353286  0.931856
			 0.060345 -0.378413  0.923668
			-0.060995 -0.367112  0.928175
			-0.855401 -0.488256  0.172905
			-0.868807 -0.423645  0.256320
			-0.861828 -0.358860  0.358429
			-0.840263 -0.447450  0.306181
			-0.771038 -0.625638  0.118652
			-0.842855 -0.425933  0.328901
			-0.808806 -0.400319  0.430786
			-0.765217 -0.401261  0.503421
			-0.889425 -0.266454  0.371382
			-0.798656 -0.351184  0.488690
			-0.546970 -0.505123  0.667589
			 0.431773 -0.796895 -0.422528
			 0.194391 -0.803751 -0.562313
			 0.211260 -0.838021 -0.503080
			 0.304605 -0.773688 -0.555539
			 0.755102 -0.640423 -0.140282
			 0.822016 -0.554891  0.128010
			 0.499809 -0.756054 -0.422580
			 0.652509 -0.689823 -0.313651
			 0.812867 -0.565461  0.139645
			-0.179748 -0.822751 -0.539232
			 0.126307 -0.803809 -0.581324
			-0.495546 -0.743090 -0.449724
			-0.428803 -0.789814 -0.438544
			-0.425720 -0.829155 -0.362304
			-0.474237 -0.662104 -0.580274
			-0.545160 -0.598669 -0.586853
			-0.728011 -0.625872 -0.279792
			-0.646786 -0.610904 -0.456578
			-0.804251 -0.590438  0.067556
			-0.864814 -0.491988 -0.100226
			-0.841823 -0.539721  0.005942
			 0.772502 -0.174997  0.610423
			 0.744054 -0.339083  0.575679
			 0.739031 -0.381493  0.555245
			 0.742660 -0.637611  0.204714
			 0.783103 -0.398161  0.477721
			 0.589469 -0.802636 -0.091111
			 0.586419 -0.786685  0.192973
			 0.588859 -0.777406 -0.221101
			 0.533890 -0.597594  0.598200
			 0.547427 -0.620135  0.561922
			 0.756281 -0.550414  0.353673
			 0.786151 -0.593965  0.170800
			 0.796317 -0.603415 -0.042052
			 0.304332 -0.222863  0.926129
			 0.440724 -0.137228  0.887091
			 0.604633 -0.161705  0.779917
			 0.749038 -0.166916  0.641157
			 0.649047 -0.099280  0.754242
			 0.531275 -0.058190  0.845199
			 0.507719 -0.058491  0.859535
			 0.164660 -0.270818  0.948443
			-0.263142 -0.364769  0.893140
			-0.325644 -0.443336  0.835110
			-0.491038 -0.474089  0.730836
			 0.063483 -0.343600  0.936968
			-0.131872 -0.257192  0.957320
			 0.055012 -0.239303  0.969385
			-0.884049 -0.428920  0.185700
			-0.936929 -0.264308  0.228705
			-0.903373 -0.182470  0.388101
			-0.934920 -0.214478  0.282708
			-0.899680 -0.144367  0.411988
			-0.853992 -0.112792  0.507913
			-0.949613 -0.181271  0.255687
			-0.912328 -0.224161  0.342652
			-0.901627 -0.221237  0.371648
			-0.974449 -0.095713  0.203196
			-0.972377 -0.009072  0.233239
			-0.906823 -0.232782  0.351405
			-0.704514 -0.391741  0.591776
			 0.201955 -0.685449 -0.699552
			 0.404089 -0.686803 -0.604164
			 0.319378 -0.674304 -0.665817
			 0.803338 -0.592643  0.058502
			 0.783184 -0.600752 -0.160373
			 0.687409 -0.648070 -0.327833
			 0.769003 -0.578758  0.271430
			 0.548153 -0.694125 -0.466604
			 0.751711 -0.655148  0.075579
			 0.041398 -0.715499 -0.697386
			-0.185938 -0.743793 -0.642027
			-0.384249 -0.766240 -0.515004
			-0.410834 -0.542916 -0.732432
			-0.318223 -0.691562 -0.648441
			-0.514706 -0.498727 -0.697388
			-0.669668 -0.508744 -0.541041
			-0.613216 -0.437817 -0.657482
			-0.807056 -0.540242 -0.238327
			-0.816017 -0.442095 -0.372382
			-0.908350 -0.401818  0.115939
			-0.948769 -0.315790  0.010709
			-0.901478 -0.391577 -0.184405
			 0.793605 -0.271288  0.544605
			 0.796982 -0.139633  0.587642
			 0.821772 -0.015964  0.569593
			 0.689156 -0.022131  0.724275
			 0.805354 -0.322894  0.497136
			 0.781712 -0.491146  0.384319
			 0.690891 -0.720774 -0.056162
			 0.535579 -0.774788  0.335944
			 0.603891 -0.782181  0.153325
			 0.724187 -0.652354  0.223579
			 0.868153 -0.432553  0.243329
			 0.902672 -0.372195  0.215997
			 0.841158 -0.519283  0.150992
			 0.255784 -0.181750  0.949495
			 0.224158 -0.207120  0.952289
			 0.409047  0.000738  0.912513
			 0.372853 -0.096676  0.922840
			 0.248117 -0.096580  0.963904
			 0.583251 -0.064761  0.809706
			 0.665516 -0.098616  0.739841
			 0.590028 -0.040510  0.806366
			 0.665590 -0.051442  0.744543
			 0.701322  0.044535  0.711452
			 0.529855 -0.021492  0.847816
			 0.370621 -0.030258  0.928291
			 0.170143 -0.196700  0.965588
			-0.409440 -0.391059  0.824277
			-0.388216 -0.281523  0.877515
			-0.742073 -0.417749  0.524226
			-0.584912 -0.438808  0.682148
			 0.090301 -0.143517  0.985519
			 0.003041 -0.148455  0.988915
			-0.073441 -0.181216  0.980697
			-0.286468 -0.221226  0.932199
			-0.938927 -0.201880  0.278676
			-0.912157 -0.216211  0.348171
			-0.941658 -0.018143  0.336083
			-0.877534  0.059652  0.475790
			-0.907014  0.000580  0.421100
			-0.969617 -0.012990  0.244282
			-0.935152  0.116371  0.334587
			-0.985187 -0.145438  0.090858
			-0.993395  0.032402  0.110078
			-0.950854  0.155366  0.267840
			-0.903162 -0.288300  0.318091
			 0.151098 -0.539552 -0.828283
			 0.299101 -0.572145 -0.763668
			 0.275033 -0.577712 -0.768509
			 0.448861 -0.643087 -0.620454
			 0.841753 -0.538117 -0.043379
			 0.839392 -0.530968  0.116163
			 0.802286 -0.563501 -0.196988
			 0.621139 -0.638979 -0.453753
			 0.756983 -0.556088 -0.343138
			 0.589918 -0.645812 -0.484688
			-0.048981 -0.638851 -0.767769
			-0.225210 -0.602058 -0.766033
			-0.378170 -0.407787 -0.831082
			-0.307267 -0.460694 -0.832675
			-0.479546 -0.404898 -0.778520
			-0.825842 -0.340322 -0.449629
			-0.525023 -0.358545 -0.771878
			-0.661894 -0.315853 -0.679804
			-0.967938 -0.240921 -0.071091
			-0.941528 -0.266667 -0.205947
			-0.960301 -0.213179  0.179933
			 0.840740 -0.133589  0.524700
			 0.827017 -0.323375  0.459860
			 0.833200 -0.267853  0.483769
			 0.875337  0.003582  0.483500
			 0.879320 -0.003126  0.476221
			 0.807126  0.061490  0.587169
			 0.865389  0.025073  0.500473
			 0.785311 -0.329957  0.523847
			 0.853506 -0.337433  0.397074
			 0.795898 -0.541565  0.270656
			 0.800312 -0.312885  0.511473
			 0.893485 -0.266916  0.361167
			 0.897486 -0.401534  0.182456
			 0.943174 -0.258785  0.208455
			 0.974229 -0.191393  0.119361
			 0.950485 -0.253693  0.179492
			 0.203530 -0.154819  0.966751
			 0.359721  0.240896  0.901427
			 0.332451  0.072394  0.940338
			 0.266239  0.081411  0.960463
			 0.268892  0.053557  0.961680
			 0.225828 -0.077741  0.971060
			 0.768353  0.009918  0.639949
			 0.688649 -0.043993  0.723759
			 0.519257 -0.094994  0.849322
			 0.262203 -0.058908  0.963213
			 0.329789 -0.042470  0.943099
			 0.232054 -0.031599  0.972190
			-0.589473 -0.282725  0.756695
			-0.597271 -0.367197  0.713046
			-0.648419 -0.262419  0.714625
			-0.592272 -0.247187  0.766885
			-0.779824 -0.348777  0.519836
			 0.237694  0.033042  0.970778
			 0.080905 -0.075996  0.993820
			-0.231472 -0.234684  0.944110
			-0.245865 -0.239701  0.939198
			 0.046344 -0.097744  0.994132
			-0.501927 -0.257693  0.825629
			-0.905637  0.071269  0.418022
			-0.856673  0.077622  0.509987
			-0.907295 -0.050386  0.417465
			-0.897814  0.156119  0.411774
			 0.989012  0.075704  0.126980
			 0.811461  0.266276  0.520220
			-0.930317 -0.234855  0.281696
			-0.956509 -0.183837  0.226482
			-0.981214 -0.180854  0.067158
			-0.994185 -0.105661  0.020797
			-0.977016  0.073987  0.199916
			 0.159770  0.376911  0.912366
			 0.198202 -0.486563 -0.850866
			-0.000689 -0.557351 -0.830277
			-0.009566 -0.511521 -0.859217
			 0.047624 -0.415800 -0.908208
			 0.174912 -0.494383 -0.851464
			 0.333087 -0.604974 -0.723229
			 0.144228 -0.505947 -0.850421
			 0.561281 -0.593137 -0.577194
			 0.855807 -0.494663 -0.151338
			 0.915914 -0.400897  0.019559
			 0.904408 -0.408293  0.123865
			 0.886293 -0.422499 -0.189682
			 0.901296 -0.413358 -0.129618
			 0.576269 -0.606142 -0.548184
			 0.651171 -0.650752 -0.390510
			 0.766303 -0.488504 -0.417304
			-0.109394 -0.590547 -0.799554
			-0.184872 -0.481849 -0.856530
			-0.259316 -0.374915 -0.890053
			-0.452851 -0.301530 -0.839051
			-0.346832 -0.328502 -0.878518
			-0.951981 -0.205818 -0.226652
			-0.850141 -0.247507 -0.464758
			-0.498001 -0.289935 -0.817271
			-0.627662 -0.272941 -0.729070
			-0.786088 -0.250511 -0.565075
			-0.972342 -0.065153  0.224291
			-0.986437 -0.164104 -0.003342
			-0.977760 -0.057400  0.201720
			 0.864144 -0.197578  0.462836
			 0.873370 -0.108158  0.474896
			 0.851511 -0.242950  0.464655
			 0.901038  0.067458  0.428462
			 0.917728 -0.018548  0.396777
			 0.903203  0.042080  0.427146
			 0.842527 -0.083101  0.532205
			 0.937416 -0.190052  0.291774
			 0.932839 -0.308214  0.186589
			 0.963756 -0.233622  0.128824
			 0.985487 -0.159260  0.058748
			 0.979199 -0.165351  0.117597
			 0.995057  0.027890  0.095309
			 0.990002  0.016932  0.140031
			 0.970159  0.017733  0.241820
			 0.967757 -0.092837  0.234154
			 0.962702 -0.054307  0.265056
			 0.407967  0.224662  0.884924
			 0.406720  0.258690  0.876161
			 0.412071  0.069577  0.908491
			 0.721556 -0.125035  0.680972
			 0.785138 -0.098179  0.611490
			 0.654914 -0.121468  0.745877
			 0.667991 -0.175651  0.723142
			 0.405398 -0.089793  0.909719
			 0.560274 -0.163684  0.811973
			 0.342418  0.027423  0.939147
			 0.158604  0.099020  0.982364
			 0.274186  0.016961  0.961527
			 0.191913  0.088143  0.977446
			-0.873190 -0.198147  0.445282
			-0.827407 -0.238870  0.508270
			-0.843593 -0.255973  0.472047
			-0.753830 -0.203549  0.624746
			-0.778326 -0.237244  0.581312
			 0.253010  0.018361  0.967289
			 0.456740  0.110269  0.882740
			-0.340435 -0.209319  0.916673
			-0.492589 -0.299504  0.817101
			-0.066522 -0.079211  0.994636
			 0.175113  0.074077  0.981758
			-0.722636 -0.219799  0.655351
			-0.863648  0.203875  0.461027
			-0.891794  0.122999  0.435402
			-0.893410  0.108808  0.435867
			-0.880259  0.162286  0.445879
			-0.943358 -0.154428  0.293646
			-0.974273 -0.209365 -0.083418
			-0.961725 -0.241935  0.128660
			-0.964339 -0.218078 -0.149974
			-0.954982  0.060965  0.290330
			-0.962354 -0.027489  0.270407
			-0.980195 -0.197668 -0.012082
			-0.127235 -0.402833 -0.906387
			 0.090487 -0.367459 -0.925627
			 0.078381 -0.278938 -0.957105
			-0.157566 -0.258496 -0.953075
			-0.013305 -0.208074 -0.978023
			 0.493948 -0.719333 -0.488442
			 0.164227 -0.534641 -0.828969
			 0.246984 -0.571713 -0.782396
			 0.410696 -0.582277 -0.701628
			 0.017363 -0.367129 -0.930008
			 0.973558 -0.223613  0.046718
			 0.954207 -0.298888 -0.012446
			 0.967515 -0.249732 -0.039343
			 0.903712 -0.371901 -0.212120
			 0.541706 -0.662176 -0.517762
			 0.548072 -0.571506 -0.610735
			 0.551244 -0.560850 -0.617720
			 0.849833 -0.398361 -0.345099
			 0.688286 -0.469086 -0.553372
			-0.081043 -0.379982 -0.921437
			-0.241868 -0.367360 -0.898079
			 0.428455 -0.280034 -0.859074
			-0.418498 -0.213591 -0.882745
			-0.384638 -0.247697 -0.889213
			-0.862792 -0.208644 -0.460497
			-0.981940 -0.135342 -0.132198
			-0.979278 -0.132957 -0.152763
			-0.969872 -0.099799 -0.222234
			-0.571727 -0.276202 -0.772555
			-0.458678 -0.215173 -0.862157
			-0.713692 -0.234239 -0.660133
			-0.830692 -0.175261 -0.528426
			-0.875796 -0.174245 -0.450134
			-0.958895  0.084007  0.271041
			-0.972328 -0.077833  0.220275
			-0.994644 -0.096552  0.036904
			-0.957340 -0.144471 -0.250256
			-0.895137  0.185063  0.405564
			-0.884143  0.093090  0.457848
			 0.932451  0.093639  0.348951
			 0.903050 -0.179443  0.390257
			 0.963693 -0.144444  0.224569
			 0.957851  0.037778  0.284772
			 0.898975  0.141451  0.414531
			 0.917004  0.233622  0.323301
			 0.933378  0.168366  0.316953
			 0.814820 -0.048214  0.577706
			 0.843229 -0.214095  0.493081
			 0.998294 -0.057106  0.012142
			 0.919537  0.315215  0.234716
			 0.975135  0.197858  0.099815
			 0.481656  0.151182  0.863222
			 0.727929 -0.216270  0.650651
			 0.835086 -0.161393  0.525913
			 0.633269 -0.199501  0.747777
			 0.411977 -0.093846  0.906349
			 0.648283 -0.174454  0.741144
			 0.517733 -0.154512  0.841474
			 0.608236 -0.190976  0.770439
			 0.256736  0.135276  0.956968
			 0.381357  0.145685  0.912876
			 0.123413  0.138352  0.982664
			 0.118025  0.220193  0.968290
			 0.083468  0.194917  0.977262
			 0.130438  0.125080  0.983535
			 0.082598  0.209258  0.974366
			 0.351520 -0.028325  0.935752
			 0.181283  0.156262  0.970937
			 0.144438  0.183787  0.972296
			 0.181024  0.204947  0.961887
			 0.135468  0.166209  0.976741
			 0.152565  0.166857  0.974106
			-0.912101 -0.201158  0.357221
			-0.866879 -0.160631  0.471930
			 0.395375  0.092434  0.913857
			-0.643225 -0.238741  0.727506
			-0.530715 -0.125232  0.838247
			-0.257692 -0.049027  0.964982
			 0.025857  0.053861  0.998214
			 0.136185  0.163074  0.977170
			-0.830182 -0.267561  0.489090
			-0.965472 -0.009908  0.260319
			-0.968169 -0.026965  0.248839
			-0.944119 -0.046052  0.326373
			-0.868344  0.232534  0.438073
			-0.898991  0.075308  0.431444
			-0.954001 -0.289733 -0.077048
			-0.949731 -0.308766  0.051709
			-0.922136 -0.305924  0.236804
			-0.941507 -0.297511 -0.158279
			-0.980881 -0.185463  0.058954
			-0.938552 -0.324846 -0.116595
			-0.916757 -0.358216 -0.176745
			 0.074685 -0.230241 -0.970264
			 0.055999 -0.150795 -0.986978
			-0.101991 -0.336490 -0.936148
			-0.246260 -0.104128 -0.963594
			-0.098434  0.000972 -0.995143
			-0.339035 -0.257956 -0.904718
			 0.207152 -0.562184 -0.800648
			 0.133716 -0.515792 -0.846215
			 0.232021 -0.538171 -0.810271
			-0.151729 -0.390967 -0.907812
			 0.032473 -0.220266 -0.974899
			-0.239389 -0.283862 -0.928502
			 0.955839 -0.249754 -0.154905
			 0.357440 -0.554252 -0.751692
			 0.487874 -0.528495 -0.694746
			 0.853540 -0.350899 -0.385149
			 0.779210 -0.352471 -0.518262
			 0.613704 -0.454236 -0.645784
			-0.319976 -0.353019 -0.879200
			 0.775716 -0.238702 -0.584197
			-0.139501 -0.275202 -0.951211
			 0.770446 -0.225580 -0.596260
			-0.344125 -0.108488 -0.932635
			-0.388105 -0.122423 -0.913448
			-0.869811 -0.125543 -0.477146
			-0.844451 -0.166892 -0.508969
			-0.988228 -0.117451 -0.098033
			-0.988435 -0.103885 -0.110471
			-0.942446 -0.076954 -0.325383
			-0.995278 -0.048222 -0.084244
			-0.996621  0.040065 -0.071703
			-0.965639 -0.013113 -0.259554
			-0.605536 -0.257699 -0.752939
			-0.650422 -0.195967 -0.733859
			-0.489877 -0.119883 -0.863510
			-0.333257 -0.085940 -0.938911
			-0.676343 -0.227999 -0.700412
			-0.885488 -0.107286 -0.452107
			-0.723320 -0.193153 -0.662948
			-0.955017  0.025772  0.295428
			-0.999553  0.005659  0.029356
			-0.961850 -0.121283 -0.245223
			-0.984027 -0.068600 -0.164272
			-0.828474  0.176879  0.531361
			-0.806419  0.182440  0.562499
			 0.963561 -0.252645  0.087870
			 0.912145 -0.253848  0.321795
			 0.995328 -0.089939  0.035125
			 0.962465 -0.243781 -0.119301
			 0.980122  0.111847  0.163861
			 0.927214  0.296129  0.229306
			 0.994808  0.083655  0.057951
			 0.984218 -0.131431 -0.118491
			 0.996951  0.007218  0.077694
			 0.999475 -0.009446  0.031004
			 0.891651  0.426923  0.150650
			 0.894805  0.385474  0.225241
			 0.973633  0.214820  0.076757
			 0.907642  0.408179  0.097854
			 0.876564 -0.265114  0.401684
			 0.720959 -0.312727  0.618402
			 0.845912 -0.285355  0.450560
			 0.634467 -0.267874  0.725048
			 0.535576 -0.209658  0.818048
			-0.049586  0.221705  0.973852
			 0.134270  0.238600  0.961791
			 0.201574  0.227485  0.952690
			-0.099183  0.225262  0.969237
			 0.184550  0.262064  0.947240
			 0.048828  0.195953  0.979397
			 0.194854  0.198048  0.960630
			 0.273399  0.225790  0.935025
			 0.129841  0.224121  0.965873
			-0.017437  0.229670  0.973112
			 0.199191  0.129299  0.971393
			 0.332031 -0.015559  0.943140
			 0.082357  0.229242  0.969879
			 0.000043  0.100501  0.994937
			-0.726474 -0.228571  0.648067
			-0.518444 -0.073968  0.851906
			-0.242125  0.069914  0.967723
			-0.780927 -0.390021  0.487890
			-0.757562 -0.350796  0.550493
			-0.971209 -0.199582  0.130076
			-0.954523 -0.161388  0.250677
			-0.957571 -0.212204  0.195006
			-0.868645  0.187284  0.458672
			-0.958391  0.001826  0.285453
			-0.927878  0.126256  0.350859
			-0.952375 -0.127435  0.277022
			-0.900166 -0.413017 -0.138269
			-0.905755 -0.420357  0.053922
			-0.769525 -0.489081  0.410648
			-0.837069 -0.507736  0.203762
			-0.939269 -0.336924 -0.065230
			-0.030036 -0.072706 -0.996901
			-0.172179  0.065204 -0.982905
			-0.049068  0.151180 -0.987288
			-0.029083  0.185383 -0.982236
			 0.097795 -0.461390 -0.881791
			-0.275302 -0.367780 -0.888227
			-0.154838 -0.390977 -0.907283
			-0.091604 -0.165007 -0.982029
			-0.405468 -0.313066 -0.858828
			-0.291439 -0.368565 -0.882736
			-0.331840 -0.142368 -0.932531
			-0.428445 -0.169880 -0.887455
			 0.902303 -0.258238 -0.345199
			 0.411567 -0.481536 -0.773780
			 0.639216 -0.432090 -0.636162
			 0.583220 -0.371851 -0.722206
			 0.922142 -0.196412 -0.333280
			 0.814108 -0.238896 -0.529298
			-0.176137  0.025994 -0.984022
			-0.327818 -0.014234 -0.944634
			-0.990804  0.069853  0.115877
			-0.994279  0.081660 -0.068847
			-0.984332  0.082174  0.156004
			-0.980334  0.069679 -0.184633
			-0.941799  0.017361 -0.335727
			-0.726139 -0.085223 -0.682245
			-0.674540 -0.170543 -0.718269
			-0.303459 -0.019708 -0.952641
			-0.605216 -0.007366 -0.796027
			-0.234958  0.001241 -0.972005
			-0.817726 -0.115243 -0.563953
			-0.830472 -0.021201 -0.556657
			 0.981787  0.051449  0.182884
			 0.946056  0.157514  0.283138
			-0.998814  0.004027 -0.048527
			-0.993893  0.100789  0.044918
			-0.980244  0.123263  0.154683
			 0.199957  0.463396  0.863297
			 0.953599 -0.297613 -0.045564
			 0.931762 -0.278326  0.233141
			 0.993114 -0.116825 -0.008737
			 0.958125 -0.209738 -0.194951
			 0.971286  0.223638  0.081179
			 0.993894 -0.104976 -0.033976
			 0.983114 -0.055074 -0.174512
			 0.995711 -0.005753 -0.092337
			 0.975487  0.198222  0.095563
			 0.993648  0.064561 -0.092168
			 0.978568  0.130738  0.159097
			 0.973661  0.212630  0.082297
			 0.980298  0.135881  0.143362
			 0.922004  0.357127  0.149564
			 0.927543  0.353527  0.121170
			 0.903224  0.385955  0.187683
			 0.886424  0.363457  0.286621
			 0.928055 -0.338969  0.154317
			 0.819892 -0.345821  0.456273
			 0.653706 -0.371215  0.659445
			 0.728853 -0.446197  0.519308
			 0.716740 -0.401590  0.570096
			 0.909655 -0.397956  0.118990
			 0.629139 -0.329398  0.704046
			 0.576977 -0.131838  0.806050
			 0.496255 -0.066837  0.865600
			-0.087423  0.242745  0.966143
			-0.200258  0.269847  0.941849
			 0.194493  0.135235  0.971537
			 0.072549  0.184795  0.980096
			 0.039366  0.187356  0.981503
			 0.175734  0.092830  0.980051
			 0.133723  0.190076  0.972620
			-0.316313  0.263725  0.911260
			-0.269647  0.182886  0.945433
			-0.137000  0.162097  0.977218
			 0.159363  0.300136  0.940490
			 0.234411  0.322951  0.916926
			 0.077365  0.200154  0.976705
			 0.281173  0.250044  0.926510
			 0.325399  0.333097  0.884965
			 0.388112  0.284324  0.876658
			 0.263830  0.329565  0.906521
			 0.286942  0.229451  0.930063
			-0.104468  0.172005  0.979541
			 0.045036  0.199559  0.978850
			 0.193498  0.203262  0.959814
			 0.374910  0.215329  0.901707
			 0.080796  0.175361  0.981183
			 0.280046  0.217831  0.934946
			 0.236155  0.212893  0.948107
			 0.409773  0.268326  0.871830
			 0.303732  0.240502  0.921903
			 0.412483  0.256956  0.873974
			 0.054873  0.267092  0.962108
			-0.128816  0.282514  0.950575
			 0.263107  0.002552  0.964763
			 0.382971  0.047147  0.922557
			-0.212873  0.230370  0.949534
			-0.603880 -0.097895  0.791041
			-0.744223 -0.251920  0.618602
			-0.460898 -0.000676  0.887453
			-0.412477  0.064194  0.908703
			-0.812796 -0.283987  0.508640
			-0.953113 -0.300656  0.034389
			-0.929944 -0.341838 -0.135469
			-0.963231 -0.248797  0.101418
			-0.975632 -0.101983  0.194270
			-0.998073  0.051992  0.033864
			-0.971985 -0.168594  0.163770
			-0.833962 -0.550891  0.032039
			-0.865498 -0.440936 -0.237671
			-0.824593 -0.551649 -0.125418
			-0.831085 -0.547861  0.095639
			-0.715833 -0.390401  0.578938
			-0.702505 -0.412085  0.580236
			-0.742487 -0.565149  0.359610
			-0.782501 -0.434953  0.445542
			-0.712204 -0.595764  0.371256
			-0.787557 -0.588515  0.182769
			-0.154088  0.189505 -0.969714
			-0.257836  0.005725 -0.966172
			 0.020796  0.076508 -0.996852
			 0.205357  0.129082 -0.970137
			 0.086893  0.309777 -0.946830
			 0.315091 -0.445609 -0.837944
			 0.142689 -0.394777 -0.907629
			 0.125725 -0.340686 -0.931733
			-0.144178 -0.347749 -0.926436
			-0.217463 -0.085902 -0.972281
			-0.378658 -0.280459 -0.882021
			-0.565270 -0.202452 -0.799677
			-0.462895  0.031822 -0.885842
			-0.428671 -0.240467 -0.870871
			-0.525601 -0.104494 -0.844289
			-0.489720  0.020792 -0.871632
			-0.410602  0.051864 -0.910339
			-0.376620 -0.069267 -0.923775
			 0.380934 -0.389655 -0.838485
			 0.356191 -0.324368 -0.876307
			 0.582488 -0.240748 -0.776369
			 0.769300 -0.220303 -0.599704
			 0.904230 -0.130126 -0.406738
			 0.957596 -0.129899 -0.257171
			 0.999261 -0.015022 -0.035394
			 0.001584 -0.030829 -0.999523
			-0.978751  0.101726 -0.178043
			-0.917584  0.157255 -0.365118
			-0.877868  0.080410 -0.472103
			-0.281073  0.115276 -0.952738
			-0.503700  0.025853 -0.863492
			-0.416708  0.135098 -0.898945
			-0.786770  0.061563 -0.614169
			-0.674116  0.115337 -0.729565
			-0.271748 -0.030055 -0.961899
			 0.889568 -0.304032 -0.340930
			 0.918674 -0.365702 -0.149329
			 0.879489 -0.157521 -0.449095
			 0.993345  0.068655 -0.092478
			 0.984148  0.139879  0.109030
			 0.947237 -0.071554 -0.312446
			 0.996746  0.043012 -0.068171
			 0.956733  0.255183  0.139797
			 0.991965  0.065605 -0.108172
			 0.986394  0.158384 -0.044067
			 0.911854  0.317459  0.260275
			 0.886359  0.297976  0.354369
			 0.961569  0.113806  0.249864
			 0.979302  0.093942  0.179281
			 0.917578  0.271560  0.290354
			 0.842610 -0.466201  0.269564
			 0.806988 -0.484200  0.338113
			 0.848767 -0.360833  0.386515
			 0.711510 -0.217438  0.668188
			 0.653008 -0.235650  0.719756
			 0.816408 -0.251731  0.519721
			 0.908048 -0.418609  0.014692
			 0.583877  0.004179  0.811831
			 0.631116 -0.045304  0.774364
			 0.502246  0.064715  0.862300
			-0.249051  0.277646  0.927840
			-0.343150  0.303551  0.888878
			 0.135224  0.222873  0.965423
			 0.386675  0.242367  0.889798
			 0.021864  0.220170  0.975217
			-0.014566  0.176890  0.984123
			-0.505850  0.263148  0.821504
			-0.442538  0.322567  0.836726
			-0.498997  0.205745  0.841826
			-0.439104  0.150980  0.885659
			-0.355470  0.176953  0.917785
			 0.292980  0.354066  0.888144
			 0.414735  0.346320  0.841461
			 0.381280  0.273135  0.883189
			 0.527146  0.329202  0.783417
			 0.604363  0.292735  0.740980
			-0.203754  0.181512  0.962049
			-0.449102  0.174542  0.876266
			-0.300652  0.174473  0.937639
			-0.207616  0.164974  0.964199
			 0.348689  0.204062  0.914754
			 0.038270  0.144420  0.988776
			 0.431885  0.227374  0.872798
			 0.270003  0.200042  0.941850
			 0.201107  0.187533  0.961450
			 0.293251  0.213233  0.931952
			 0.357921  0.222565  0.906839
			 0.534995  0.241698  0.809545
			 0.431063  0.245144  0.868383
			-0.401867  0.219709  0.888949
			-0.310214  0.264186  0.913221
			-0.467614  0.111548  0.876866
			-0.522244 -0.036126  0.852031
			-0.585248 -0.132224  0.800001
			-0.791396 -0.251874  0.557003
			-0.653737 -0.287380  0.700029
			-0.875449 -0.317174 -0.364678
			-0.960486 -0.260425 -0.098215
			-0.826197 -0.472554 -0.306744
			 0.112111 -0.918023 -0.380348
			 0.096271 -0.794625  0.599419
			-0.990933 -0.097717  0.092213
			-0.978966  0.136082 -0.152011
			-0.999878  0.008137 -0.013355
			-0.979681  0.146814 -0.136645
			-0.805364 -0.590532 -0.051588
			-0.839687 -0.540672 -0.050984
			-0.684212 -0.178929  0.706993
			-0.723898 -0.322398  0.609943
			-0.902969 -0.382572  0.195667
			-0.859031 -0.215729  0.464250
			-0.701390 -0.639442  0.314907
			-0.710195 -0.661754  0.240217
			-0.852921 -0.518850  0.057627
			-0.291630  0.318383 -0.901989
			-0.432723  0.215837 -0.875309
			 0.375865  0.212942 -0.901876
			 0.347339 -0.090674 -0.933345
			 0.174429 -0.126410 -0.976522
			 0.126336  0.205836 -0.970397
			 0.408829 -0.206455 -0.888952
			 0.246052 -0.232533 -0.940950
			-0.061675 -0.250417 -0.966172
			-0.348970 -0.173178 -0.920994