<?xml version="1.0"?>
<VTKFile type="PolyData" version="0.1" byte_order="LittleEndian" compressor="vtkZLibDataCompressor">
	<PolyData>
		<Piece NumberOfPoints="1616" NumberOfVerts="0" NumberOfLines="0" NumberOfStrips="0" NumberOfPolys="3228">
		<PointData Normals="Normals">
		<DataArray type="Float32" Name="Normals" NumberOfComponents="3" format="ascii">
			-0.502100 -0.727542  0.467523
			-0.643432 -0.564244  0.517324
			-0.456906 -0.726154  0.513748
			-0.452066 -0.796070  0.402378
			-0.684160 -0.673152  0.280699
			-0.502796 -0.772202  0.388459
			-0.520472 -0.573422  0.632689
			-0.494754 -0.414957  0.763564
			-0.781007 -0.495560  0.380063
			-0.715509 -0.422221  0.556575
			-0.840636 -0.505191  0.195227
			-0.569662 -0.660877  0.488598
			-0.382297 -0.831764  0.402514
			-0.320632 -0.814240  0.483951
			-0.281419 -0.824969  0.490133
			-0.293531 -0.913021  0.283255
			-0.399500 -0.871293  0.285041
			-0.416237 -0.799302  0.433433
			-0.786429 -0.617542 -0.013084
			-0.620708 -0.780380  0.075690
			-0.534788 -0.817314  0.214475
			-0.533658 -0.537494  0.652924
			-0.609223 -0.429718  0.666476
			-0.358306 -0.403448  0.841930
			-0.420748 -0.435907  0.795585
			-0.553231 -0.461979  0.693189
			-0.778156 -0.424284  0.463094
			-0.907453 -0.400905  0.125717
			-0.871358 -0.484999 -0.074240
			-0.943827 -0.329906 -0.018787
			-0.740705 -0.635041  0.219271
			-0.591075 -0.729299  0.344606
			-0.744038 -0.576172  0.338281
			-0.686928 -0.510728  0.516998
			-0.155956 -0.892104  0.424061
			-0.611018 -0.738429  0.285270
			-0.513134 -0.770976  0.377214
			-0.364007 -0.898378  0.245797
			-0.160200 -0.943574  0.289834
			-0.179808 -0.941520  0.284972
			 0.026322 -0.964001  0.264594
			-0.257513 -0.939965  0.223948
			-0.477316 -0.859095  0.184730
			-0.374760 -0.828649  0.415807
			-0.202415 -0.978711  0.033943
			-0.211113 -0.956932  0.199281
			-0.674172 -0.731221 -0.103957
			-0.750941 -0.657677  0.059579
			-0.663421 -0.748246 -0.001277
			-0.620247 -0.778985 -0.092066
			-0.574469 -0.470135  0.670044
			-0.693441 -0.420236  0.585270
			-0.583153 -0.386835  0.714347
			-0.519020 -0.402038  0.754310
			-0.864955 -0.366071  0.343286
			-0.936931 -0.313984  0.153540
			-0.941958 -0.329579  0.063981
			-0.936033 -0.346451  0.061758
			-0.953143 -0.288335  0.091550
			-0.883207 -0.464820 -0.062347
			-0.938931 -0.343791  0.014706
			-0.867947 -0.475052  0.144891
			-0.910582 -0.397251  0.114162
			-0.690559 -0.721290  0.053564
			-0.879048 -0.474322  0.047879
			-0.801227 -0.578148 -0.154209
			-0.797818 -0.441136  0.410957
			-0.904862 -0.375039  0.201423
			-0.783543 -0.412544  0.464617
			-0.008562 -0.939240  0.343155
			-0.704757 -0.705160 -0.077894
			-0.697520 -0.715452  0.039927
			-0.636378 -0.744761  0.200884
			-0.563559 -0.824825  0.045445
			-0.400899 -0.907965 -0.121984
			-0.317316 -0.946719  0.055075
			-0.147904 -0.966729  0.208708
			-0.069708 -0.993080  0.094513
			-0.204035 -0.978096  0.041202
			 0.290709 -0.930831  0.221453
			 0.396164 -0.914463  0.082533
			 0.235324 -0.966012  0.106971
			 0.042780 -0.986936  0.155329
			-0.470900 -0.871895 -0.134362
			 0.091049 -0.992392  0.082876
			 0.090916 -0.984690 -0.148726
			-0.181495 -0.962709 -0.200626
			-0.463634 -0.796790  0.387518
			-0.757594 -0.652303  0.023506
			-0.571564 -0.770433  0.282395
			-0.603933 -0.746041  0.280514
			-0.572465 -0.797803 -0.189196
			-0.388471 -0.884656  0.257825
			-0.434996 -0.819886  0.372243
			-0.486762 -0.873443 -0.012684
			-0.459255 -0.874766 -0.154499
			-0.726993 -0.404622  0.554763
			-0.867178 -0.331779  0.371384
			-0.847314 -0.257468  0.464509
			-0.739366 -0.316299  0.594384
			-0.510425 -0.392370  0.765187
			-0.460009 -0.379460  0.802747
			-0.393848 -0.429412  0.812705
			-0.698878 -0.386971  0.601517
			-0.871081 -0.326216  0.367152
			-0.971963 -0.154348  0.177382
			-0.870607 -0.382634  0.309249
			-0.846883 -0.473959  0.241148
			-0.958990 -0.255719  0.122256
			-0.890216 -0.357279  0.282608
			-0.850961 -0.525168 -0.007974
			-0.698931 -0.668892  0.253138
			-0.665792 -0.572596  0.478388
			-0.654355 -0.594172  0.467738
			-0.743980 -0.605775 -0.282012
			-0.954423 -0.296100  0.037441
			-0.881105 -0.417228 -0.222652
			-0.768834 -0.454807 -0.449495
			-0.872920 -0.355445  0.334169
			 0.137416 -0.962219  0.235055
			-0.697687 -0.595863 -0.397718
			-0.692924 -0.657164 -0.296635
			-0.672251 -0.724041 -0.154411
			-0.554388 -0.739541 -0.381750
			-0.341948 -0.778143 -0.526845
			-0.309862 -0.895230 -0.320233
			-0.380007 -0.864201 -0.329775
			-0.094366 -0.985009 -0.144399
			-0.037898 -0.895533 -0.443378
			 0.157654 -0.985867 -0.056663
			 0.051423 -0.939739 -0.338003
			-0.219437 -0.912928 -0.344106
			 0.383300 -0.913658  0.135315
			 0.582135 -0.812117 -0.039810
			 0.462192 -0.875740 -0.139492
			 0.597997 -0.796574 -0.088718
			 0.333223 -0.925823 -0.178363
			 0.135343 -0.990066 -0.038103
			 0.026532 -0.999582 -0.011492
			-0.181510 -0.981183  0.065830
			-0.211607 -0.832651  0.511776
			-0.365580 -0.782259  0.504402
			-0.056174 -0.810069  0.583638
			-0.640673 -0.743607  0.191276
			-0.434544 -0.799187  0.415298
			-0.172528 -0.773216  0.610223
			-0.376260 -0.925608  0.040963
			-0.264867 -0.875525  0.404105
			-0.251550 -0.937393  0.240868
			-0.098320 -0.893156  0.438868
			-0.976168 -0.176546  0.126202
			-0.995439 -0.086731  0.039738
			-0.959532 -0.134106  0.247618
			-0.975013 -0.052523  0.215849
			-0.910363 -0.137834  0.390181
			-0.466205 -0.392766  0.792709
			-0.825498 -0.190307  0.531353
			 0.524516 -0.366388  0.768533
			 0.482318 -0.456245  0.747803
			-0.592391 -0.404437  0.696781
			-0.806022 -0.369180  0.462639
			-0.613639 -0.416487  0.670810
			-0.957807 -0.191289  0.214511
			-0.979207 -0.106418  0.172711
			-0.650085 -0.504586  0.568140
			-0.692715 -0.538771  0.479450
			-0.866462 -0.410764  0.283755
			-0.905549 -0.263169  0.332752
			-0.439061 -0.695745  0.568476
			-0.456395 -0.642223  0.615835
			-0.288613 -0.646450  0.706261
			-0.451260 -0.595388  0.664739
			-0.684882 -0.479921 -0.548281
			-0.943737 -0.214253 -0.251905
			-0.951358 -0.034544 -0.306145
			-0.985306 -0.087921 -0.146432
			-0.940840 -0.269028  0.206019
			-0.978836 -0.192955  0.068180
			-0.820362 -0.239959 -0.519063
			-0.621852 -0.316629 -0.716272
			 0.207870 -0.978009 -0.016993
			-0.601015 -0.511052 -0.614497
			-0.591524 -0.611113 -0.525967
			-0.444796 -0.569405 -0.691328
			-0.261961 -0.543796 -0.797284
			-0.267350 -0.721134 -0.639132
			-0.339272 -0.700126 -0.628266
			-0.068400 -0.730188 -0.679813
			-0.011336 -0.713933 -0.700122
			 0.055649 -0.667346 -0.742666
			 0.185680 -0.831344 -0.523822
			 0.386762 -0.912808 -0.131137
			 0.557872 -0.790809 -0.251792
			 0.602465 -0.671580 -0.431295
			 0.627525 -0.718203 -0.300661
			 0.637508 -0.760817 -0.121411
			 0.527863 -0.844428 -0.091117
			 0.597036 -0.790937 -0.134037
			 0.503590 -0.853055 -0.136724
			 0.552118 -0.833407 -0.024469
			 0.264553 -0.954813  0.135441
			 0.536675 -0.830465 -0.149360
			 0.479165 -0.876868  0.038768
			 0.232839 -0.937310  0.259300
			 0.176069 -0.926642  0.332165
			-0.008039 -0.953479  0.301351
			-0.117006 -0.933808  0.338101
			-0.098819 -0.756391  0.646612
			 0.064157 -0.862038  0.502766
			 0.180812 -0.779589  0.599623
			 0.136407 -0.730543  0.669104
			-0.259344 -0.742280  0.617868
			 0.040008 -0.682700  0.729602
			-0.125541 -0.669161  0.732436
			-0.998625 -0.031107 -0.042195
			-0.991411  0.026505 -0.128066
			-0.998001  0.002139  0.063156
			-0.991037  0.023717 -0.131464
			-0.948595  0.016089  0.316085
			-0.977795  0.095452  0.186564
			-0.683880 -0.239770  0.689071
			-0.527701 -0.341819  0.777619
			 0.764165 -0.312452  0.564292
			-0.853864 -0.069955  0.515775
			-0.361109 -0.404482  0.840235
			-0.777074 -0.358546  0.517301
			-0.916148 -0.284853  0.282015
			-0.722323 -0.251829  0.644074
			-0.973421 -0.149528  0.173474
			-0.942936 -0.097314  0.318436
			 0.177728 -0.173010  0.968752
			 0.149143 -0.466110  0.872065
			-0.315141 -0.626544  0.712832
			-0.717358 -0.460700  0.522640
			-0.313184 -0.595168  0.740062
			-0.572149 -0.500343  0.649848
			-0.639442 -0.400996  0.655985
			-0.837347 -0.218584  0.501070
			-0.214389 -0.677107  0.703963
			-0.887242 -0.011574 -0.461160
			-0.882040  0.060756 -0.467242
			-0.956837  0.048503 -0.286548
			-0.685037 -0.107044 -0.720601
			-0.805240  0.018639 -0.592656
			-0.472995 -0.309230 -0.825017
			-0.460585 -0.173721 -0.870449
			-0.465251 -0.090951 -0.880494
			 0.257312 -0.880953 -0.397130
			-0.470124 -0.465276 -0.750001
			-0.296384 -0.391775 -0.871016
			-0.206512 -0.298463 -0.931811
			-0.217694 -0.479246 -0.850255
			-0.011026 -0.361098 -0.932463
			 0.022618 -0.544268 -0.838607
			 0.114473 -0.333086 -0.935922
			 0.157134 -0.493762 -0.855283
			 0.229229 -0.597390 -0.768491
			 0.419670 -0.714587 -0.559681
			 0.512545 -0.550683 -0.658821
			 0.506116 -0.475480 -0.719559
			 0.436898 -0.601980 -0.668387
			 0.494158 -0.757423 -0.426753
			 0.503698 -0.856110 -0.115607
			 0.560332 -0.821026  0.109292
			 0.392113 -0.918737 -0.046572
			 0.630554 -0.768804  0.106501
			 0.728513 -0.678355  0.095414
			 0.634129 -0.772034  0.042939
			 0.670925 -0.738369  0.068341
			 0.468700 -0.873150 -0.133904
			 0.259854 -0.848815  0.460422
			 0.357787 -0.862934  0.356839
			 0.419789 -0.816830  0.395684
			 0.278851 -0.762930  0.583249
			 0.186948 -0.652385  0.734469
			 0.363686 -0.666051  0.651236
			 0.333490 -0.711117  0.618949
			-0.113565 -0.633013  0.765766
			-0.065895 -0.578122  0.813285
			-0.954565  0.110850 -0.276618
			-0.990674  0.093513 -0.099093
			-0.897968  0.050671  0.437134
			-0.955214  0.198829  0.219165
			-0.978254  0.204705  0.033397
			-0.833176 -0.283031  0.475091
			-0.946056 -0.206558  0.249622
			-0.809834 -0.180259  0.558280
			-0.960739 -0.109710  0.254843
			-0.929999 -0.075625  0.359699
			-0.906985 -0.118268  0.404216
			-0.765254 -0.195265  0.613398
			 0.827631 -0.179937  0.531648
			-0.907554 -0.180952  0.378948
			-0.445179 -0.491983  0.748177
			-0.250087 -0.484937  0.838029
			-0.385701 -0.462703  0.798211
			-0.520913 -0.363381  0.772401
			-0.711854 -0.245487  0.658027
			-0.815274  0.029556 -0.578320
			-0.884607  0.027639 -0.465518
			-0.677069  0.001417 -0.735918
			-0.219771 -0.144115 -0.964848
			-0.276206 -0.241424 -0.930282
			-0.315717 -0.313834 -0.895450
			-0.285758 -0.060912 -0.956364
			-0.463752  0.057559 -0.884093
			-0.210708  0.046217 -0.976456
			-0.149881 -0.167442 -0.974422
			-0.030528 -0.166582 -0.985555
			 0.037051 -0.126908 -0.991222
			-0.073582 -0.253795 -0.964455
			 0.163974 -0.104034 -0.980963
			 0.235028 -0.193785 -0.952475
			 0.355895 -0.400491 -0.844361
			 0.363359 -0.257943 -0.895229
			 0.484124 -0.411680 -0.772103
			 0.354668 -0.289201 -0.889142
			 0.391159 -0.352019 -0.850340
			 0.232631 -0.397927 -0.887433
			 0.214262 -0.473426 -0.854377
			 0.425873 -0.650536 -0.628837
			 0.462363 -0.794196 -0.394301
			 0.631792 -0.773138  0.055646
			 0.521443 -0.772192  0.363065
			 0.402714 -0.765832  0.501321
			 0.943353 -0.327120  0.055485
			 0.696141 -0.716603  0.043212
			 0.948398 -0.312605  0.053108
			 0.652217 -0.736989  0.177372
			 0.908385 -0.408090  0.091102
			 0.558379 -0.775916 -0.293543
			 0.638238 -0.768595 -0.043738
			 0.543259 -0.718897 -0.433654
			 0.119200 -0.565404  0.816155
			 0.429595 -0.603687  0.671573
			 0.297354 -0.604613  0.738935
			 0.264579 -0.534575  0.802638
			 0.536312 -0.659049  0.527280
			 0.534010 -0.592071  0.603560
			 0.449473 -0.711578  0.540029
			-0.171137 -0.474350  0.863542
			 0.097786 -0.494613  0.863595
			-0.735418  0.072378 -0.673737
			-0.938306  0.259939 -0.228065
			-0.953224  0.228983 -0.197307
			-0.840791  0.144267 -0.521783
			-0.956973  0.206030 -0.204341
			-0.923167  0.185687  0.336577
			-0.879261 -0.066620  0.471658
			-0.936990  0.347101  0.039631
			-0.940474  0.300641  0.158503
			-0.919259  0.335157  0.206476
			-0.936074  0.326822 -0.130206
			-0.788924 -0.159092  0.593539
			-0.948541  0.059287  0.311056
			-0.864302  0.109069  0.491004
			-0.853444 -0.186635  0.486621
			-0.647222 -0.295534  0.702683
			-0.909541 -0.113836  0.399721
			-0.351224 -0.411382  0.841074
			-0.647539  0.120953 -0.752372
			-0.725635  0.054430 -0.685924
			-0.074725  0.012552 -0.997125
			-0.014452  0.033541 -0.999333
			-0.410549  0.109910 -0.905190
			-0.247782  0.066994 -0.966497
			 0.075196 -0.012215 -0.997094
			 0.141437 -0.018501 -0.989774
			 0.213149 -0.001736 -0.977018
			 0.224887 -0.020746 -0.974164
			 0.290940 -0.158636 -0.943498
			 0.183543 -0.047876 -0.981845
			 0.208082 -0.083334 -0.974555
			 0.243946 -0.176995 -0.953500
			 0.136349 -0.384612 -0.912953
			 0.163445 -0.239886 -0.956943
			 0.277293 -0.351811 -0.894057
			 0.333354 -0.409825 -0.849069
			 0.342741 -0.323133 -0.882108
			 0.531705 -0.576017 -0.620882
			 0.681874 -0.706616  0.189054
			 0.775172 -0.622519  0.107607
			 0.823311 -0.566351  0.037492
			 0.724592 -0.685183  0.074105
			 0.659349 -0.748804  0.067470
			 0.721824 -0.654742  0.224238
			 0.647006 -0.690105  0.324251
			 0.502613 -0.583037 -0.638316
			 0.583452 -0.724676 -0.366645
			 0.685732 -0.678720 -0.262889
			 0.433616 -0.566883  0.700444
			 0.552310 -0.560458  0.617123
			 0.617040 -0.542458  0.570089
			 0.582977 -0.502952  0.638105
			 0.492747 -0.517057  0.699895
			 0.320272 -0.494521  0.808007
			 0.713951 -0.575338  0.399074
			-0.186950 -0.424299  0.886014
			 0.341401 -0.472654  0.812431
			 0.303075 -0.452318  0.838781
			 0.010701 -0.443165  0.896376
			 0.183076 -0.423301  0.887299
			-0.544658  0.064293 -0.836190
			-0.882154  0.374069 -0.286140
			-0.919955  0.353009 -0.170494
			-0.934530  0.355874  0.002756
			-0.894104  0.241076 -0.377440
			-0.958470  0.227963 -0.171369
			-0.958377  0.239131 -0.155982
			-0.693001  0.161316 -0.702657
			-0.915226  0.284989  0.284856
			-0.931652  0.156318  0.328008
			-0.744494 -0.253262  0.617727
			-0.867645 -0.039321  0.495627
			-0.836877  0.521467 -0.166463
			-0.798230  0.602213 -0.012986
			-0.891381  0.433968  0.130808
			-0.826501  0.562917  0.004480
			-0.889620  0.451600  0.068068
			-0.897241  0.428891  0.104933
			-0.887912  0.457837  0.044692
			-0.831023  0.554657 -0.041918
			-0.805232  0.044846  0.591262
			-0.707243 -0.301026  0.639680
			-0.309525  0.078920  0.947611
			-0.912806  0.152772  0.378741
			-0.953213  0.175388  0.246221
			-0.919025  0.215219  0.330264
			-0.850470 -0.154380  0.502859
			-0.773019 -0.119640  0.622999
			-0.727171 -0.272002  0.630268
			-0.476128 -0.344210  0.809210
			 0.156303  0.034677 -0.987100
			 0.134084 -0.053858 -0.989505
			-0.059230  0.037998 -0.997521
			-0.008517  0.032309 -0.999442
			-0.024699 -0.100586 -0.994622
			-0.178929  0.037477 -0.983148
			 0.083310 -0.102402 -0.991248
			 0.084675 -0.142446 -0.986174
			 0.133283 -0.192044 -0.972294
			 0.339985 -0.271637 -0.900346
			 0.435358 -0.418110 -0.797275
			 0.434829 -0.373230 -0.819526
			 0.346361 -0.278426 -0.895831
			 0.795447 -0.470583  0.381859
			 0.812252 -0.525328  0.253529
			 0.749393 -0.529138  0.398023
			 0.694265 -0.718433 -0.043021
			 0.635806 -0.745416  0.200265
			 0.654996 -0.651083  0.383498
			 0.728926 -0.474619  0.493360
			 0.581223 -0.631054 -0.513762
			 0.512802 -0.436254 -0.739403
			 0.656024 -0.570381 -0.494266
			 0.727370 -0.617392 -0.299600
			 0.430335 -0.472025  0.769418
			 0.524679 -0.573052  0.629543
			 0.580913 -0.504152  0.639039
			 0.626629 -0.497038  0.600241
			 0.709896 -0.447977  0.543475
			 0.760046 -0.463190  0.455835
			 0.662535 -0.402175  0.631904
			-0.354975 -0.308868  0.882379
			-0.143206 -0.377959  0.914680
			-0.037246 -0.406413  0.912930
			 0.465932 -0.423499  0.776889
			 0.306235 -0.413762  0.857333
			 0.231518 -0.394097  0.889431
			-0.426161  0.083121 -0.900821
			-0.833897  0.504276 -0.224324
			-0.952284  0.301162  0.049570
			-0.855212  0.518228 -0.007223
			-0.902193  0.398587  0.164849
			-0.747671  0.657103 -0.095932
			-0.724647  0.190003 -0.662408
			-0.918703  0.222080 -0.326597
			-0.802961  0.207544 -0.558730
			-0.835925  0.260175 -0.483257
			-0.903077  0.287267 -0.319265
			-0.901999  0.263396  0.342083
			-0.923980  0.096490  0.370068
			-0.720488 -0.295216  0.627491
			-0.886703  0.154447  0.435780
			-0.854583 -0.066952  0.514981
			-0.648368  0.757395 -0.077273
			-0.564515  0.804918 -0.182839
			-0.759440  0.633888 -0.146412
			-0.814959  0.566743 -0.121015
			-0.731259  0.634208 -0.251077
			-0.900900  0.332313  0.279190
			-0.876500  0.456165  0.153822
			-0.794929  0.574959 -0.193676
			-0.679980  0.680089 -0.274054
			-0.515892  0.770258 -0.374909
			-0.886853 -0.069261  0.456831
			-0.942696  0.167214  0.288728
			-0.781856 -0.407380  0.471956
			-0.870970 -0.343792  0.351025
			-0.926829  0.080060  0.366850
			 0.811583 -0.032515  0.583331
			-0.565027  0.122917  0.815865
			-0.988396  0.129487  0.079415
			-0.990741 -0.025379  0.133376
			-0.761253 -0.242467  0.601418
			-0.690209 -0.263184  0.674052
			-0.512084 -0.280600  0.811809
			-0.104459  0.029045 -0.994105
			 0.064852  0.016315 -0.997761
			-0.024641 -0.017079 -0.999551
			-0.035914 -0.144221 -0.988893
			-0.110891 -0.087041 -0.990014
			-0.153242 -0.142387 -0.977877
			 0.012369 -0.088504 -0.995999
			 0.006653 -0.120029 -0.992748
			-0.022225 -0.107798 -0.993924
			-0.102095  0.029413 -0.994340
			-0.203821  0.066767 -0.976729
			 0.075645 -0.195754 -0.977731
			 0.119874 -0.179904 -0.976353
			 0.147585 -0.158620 -0.976247
			 0.149280 -0.143192 -0.978372
			 0.203125 -0.161882 -0.965678
			 0.378281 -0.246893 -0.892159
			 0.764115 -0.404335  0.502635
			 0.733903 -0.667328  0.126725
			 0.729986 -0.657801 -0.185522
			 0.813606 -0.472785  0.338408
			 0.911286 -0.311839  0.268914
			 0.670001 -0.563139  0.483708
			 0.793172 -0.431543  0.429708
			 0.718953 -0.399803  0.568564
			 0.731060 -0.386515  0.562279
			 0.736482 -0.376394  0.562069
			 0.569534 -0.421719 -0.705538
			 0.703141 -0.527203 -0.477126
			 0.516440 -0.432963  0.738804
			 0.617080 -0.392996  0.681738
			 0.719979 -0.373884  0.584672
			-0.647525 -0.207937  0.733125
			-0.564068 -0.123171  0.816490
			-0.224427 -0.337198  0.914292
			-0.363690 -0.251263  0.896993
			-0.157000 -0.320253  0.934232
			 0.047438 -0.381652  0.923088
			 0.475462 -0.429851  0.767571
			 0.245168 -0.420548  0.873517
			 0.133274 -0.401824  0.905966
			 0.851182 -0.199146  0.485622
			 0.844720 -0.205372  0.494237
			-0.571494  0.144294 -0.807821
			-0.211432  0.131469 -0.968510
			-0.896047  0.324428 -0.303062
			-0.904526  0.373577  0.205603
			-0.915054  0.382069 -0.129224
			-0.836260  0.547838 -0.023313
			-0.829030  0.519839  0.206100
			-0.660453  0.749069  0.051932
			-0.584884  0.209819 -0.783509
			-0.710716  0.277726 -0.646336
			-0.893506  0.272836  0.356662
			-0.797849 -0.257476  0.545108
			-0.865176  0.022455  0.500966
			-0.529307  0.842859  0.097074
			-0.338500  0.929923 -0.143742
			-0.353020  0.853836 -0.382546
			-0.682318  0.632027 -0.367403
			-0.511004  0.723993 -0.463367
			-0.548612  0.631730 -0.547670
			-0.539600  0.690382 -0.481876
			-0.841037  0.540697 -0.017406
			-0.882038  0.299478  0.363762
			-0.864400  0.427699  0.264360
			-0.827129  0.428445 -0.363719
			-0.654728  0.551470 -0.516925
			-0.467461  0.670208 -0.576456
			-0.347493  0.795440 -0.496511
			-0.315204  0.857389 -0.406856
			-0.990587 -0.057785  0.124091
			-0.894357 -0.221103  0.388895
			-0.973732 -0.175073  0.145587
			-0.978694  0.166856  0.119656
			-0.998856  0.010471  0.046655
			-0.958611 -0.024369  0.283674
			-0.852269 -0.162908  0.497091
			-0.974078  0.069122  0.215391
			-0.975214  0.032289  0.218894
			 0.668846  0.018708 -0.743165
			 0.124910 -0.023053 -0.991900
			 0.945615  0.016171 -0.324887
			 0.038318 -0.102783 -0.993965
			 0.129766 -0.118799 -0.984402
			-0.207888 -0.052027 -0.976768
			-0.193224 -0.059752 -0.979334
			-0.087490 -0.045574 -0.995122
			 0.003641 -0.054938 -0.998483
			 0.043646 -0.040227 -0.998237
			-0.007758 -0.038931 -0.999212
			 0.052295 -0.074153 -0.995875
			-0.162217  0.056811 -0.985118
			 0.098580  0.085107 -0.991483
			 0.061974  0.027112 -0.997710
			 0.797093  0.087111 -0.597541
			 0.182594 -0.170436 -0.968303
			 0.231043 -0.148642 -0.961522
			 0.497902 -0.305278 -0.811726
			 0.326755 -0.190159 -0.925781
			 0.437371 -0.272711 -0.856934
			 0.763480 -0.617491 -0.189217
			 0.779356 -0.625278  0.040385
			 0.792718 -0.547501  0.268030
			 0.700829 -0.574510 -0.422821
			 0.952133 -0.204111  0.227557
			 0.764567 -0.461511  0.449939
			 0.951929 -0.199780  0.232204
			 0.728833 -0.361923  0.581217
			 0.795667 -0.409292  0.446536
			 0.717814 -0.363240  0.593969
			 0.744883 -0.325822  0.582229
			 0.580065 -0.400140 -0.709516
			 0.662499 -0.477450 -0.577180
			 0.689758 -0.402809  0.601648
			 0.727511 -0.384232  0.568413
			-0.763513 -0.095690  0.638663
			-0.799594  0.127215  0.586912
			-0.688482  0.134176  0.712734
			-0.546093 -0.048212  0.836336
			-0.468611 -0.051788  0.881885
			 0.241022 -0.379537  0.893230
			 0.028416 -0.440439  0.897333
			-0.139949 -0.351723  0.925584
			-0.404016 -0.103657  0.908860
			 0.279239 -0.451366  0.847522
			 0.402626 -0.513140  0.758010
			 0.598503 -0.488094  0.635263
			 0.295086 -0.396125  0.869488
			 0.742961 -0.261992  0.615930
			-0.200017  0.185995 -0.961977
			 0.943172  0.042764 -0.329541
			-0.790417  0.390419 -0.472032
			-0.882950  0.455279 -0.114542
			-0.843930  0.516867  0.143637
			-0.823651  0.436356  0.362204
			-0.818146  0.440485  0.369608
			-0.718369  0.661779  0.214464
			-0.528762  0.295396 -0.795709
			-0.627249  0.388504 -0.674999
			-0.822007  0.136020  0.552994
			-0.945038 -0.050817  0.322989
			-0.833069  0.042544  0.551530
			-0.767888  0.059314  0.637833
			-0.767921  0.068280  0.636895
			-0.673563  0.616790  0.407288
			-0.497490  0.851949  0.163362
			-0.499365  0.818572 -0.283856
			-0.403592  0.799678 -0.444554
			-0.680189  0.675406 -0.284903
			-0.642933  0.632589 -0.431821
			-0.691072  0.645878 -0.324441
			-0.666635  0.469654 -0.578811
			-0.817486  0.396448 -0.417787
			-0.906143  0.412300 -0.094413
			-0.851733  0.490795  0.183496
			-0.830296  0.535897  0.153049
			-0.827572  0.248257  0.503482
			-0.841063  0.433283  0.323851
			-0.848107  0.302627 -0.434892
			-0.943074  0.201093 -0.264901
			-0.976932  0.174552 -0.123025
			-0.612314  0.642474 -0.460759
			-0.782336  0.520793 -0.341651
			-0.849700  0.134420  0.509844
			 0.641278 -0.027039 -0.766832
			 0.213891 -0.072497 -0.974164
			 0.103203  0.016231 -0.994528
			 0.195755  0.031010 -0.980163
			 0.229308  0.015221 -0.973235
			-0.341915  0.047019 -0.938554
			-0.152009  0.084006 -0.984803
			-0.238700 -0.004993 -0.971081
			-0.012865  0.030778 -0.999443
			 0.467672  0.079208 -0.880346
			-0.302586  0.079095 -0.949835
			 0.253798 -0.170770 -0.952063
			 0.257320 -0.138540 -0.956344
			 0.249283 -0.173794 -0.952709
			 0.468266 -0.397696 -0.789027
			 0.837366 -0.546160  0.022966
			 0.730476 -0.583421 -0.354999
			 0.785640 -0.551181  0.281015
			 0.665377 -0.501849 -0.552650
			 0.762919 -0.349673  0.543768
			 0.739382 -0.442886  0.507116
			 0.687111 -0.379833  0.619358
			 0.745257 -0.429483  0.510036
			 0.688529 -0.375655  0.620331
			 0.813524 -0.292738  0.502476
			 0.703535 -0.441391  0.556967
			 0.724421 -0.428356  0.540115
			 0.726266 -0.428449  0.537558
			-0.735956  0.125546  0.665287
			-0.620093  0.155310  0.769002
			-0.591790  0.078778  0.802233
			 0.112672 -0.417554  0.901640
			 0.159874 -0.498953  0.851755
			 0.087265 -0.526453  0.845714
			-0.365293 -0.167506  0.915698
			-0.106550 -0.397637  0.911335
			-0.499805 -0.029473  0.865636
			 0.287625 -0.526291  0.800181
			 0.520662 -0.619648  0.587323
			 0.283965 -0.626070  0.726223
			 0.698396 -0.495388  0.516560
			 0.086537 -0.409253  0.908308
			-0.359563  0.175421 -0.916483
			-0.779907  0.506149 -0.368183
			-0.828826  0.538558 -0.151667
			-0.857830  0.463804  0.221391
			-0.867672  0.409635  0.281680
			-0.860905  0.366285  0.353098
			-0.878382  0.327447  0.348173
			-0.877884  0.327424  0.349448
			-0.701202  0.473798 -0.532758
			-0.689605  0.374798 -0.619655
			-0.507681  0.187882 -0.840810
			-0.417041  0.193178 -0.888121
			-0.696078  0.064009  0.715107
			-0.739515  0.092031  0.666819
			-0.839650  0.526761  0.132326
			-0.873006  0.463629 -0.151356
			-0.814293  0.555245 -0.169204
			-0.891397  0.439028 -0.112544
			-0.821180  0.565692 -0.075202
			-0.794904  0.551025 -0.253967
			-0.826599  0.562119  0.027503
			-0.902649  0.424622  0.070148
			-0.911116  0.136781 -0.388791
			-0.983756  0.112446  0.139926
			-0.996842 -0.075567 -0.024397
			-0.943255  0.312843  0.111355
			-0.780455  0.565571  0.266494
			-0.808080  0.548951  0.213681
			-0.790452  0.590297  0.163509
			-0.757785  0.627886  0.177542
			-0.812352  0.286081  0.508174
			-0.807606  0.507884  0.299709
			-0.991228 -0.058687 -0.118420
			-0.993932  0.019072  0.108331
			-0.912223  0.409639  0.006783
			 0.178320  0.098728 -0.979007
			 0.189559 -0.012327 -0.981792
			 0.135109  0.052781 -0.989424
			 0.246861  0.131919 -0.960030
			 0.189829  0.130350 -0.973126
			 0.310505  0.192086 -0.930962
			-0.459341  0.231372 -0.857597
			-0.268311  0.218956 -0.938119
			-0.081806  0.181628 -0.979959
			-0.059727  0.112801 -0.991821
			-0.162064  0.366900 -0.916035
			-0.023585  0.199751 -0.979563
			 0.109347  0.193322 -0.975023
			 0.193752 -0.019723 -0.980852
			 0.347256 -0.276180 -0.896180
			 0.334000 -0.108643 -0.936291
			 0.548993 -0.555258 -0.624737
			 0.466039 -0.487771 -0.738165
			 0.778801 -0.598547  0.187644
			 0.802791 -0.489369  0.340653
			 0.782979 -0.622021 -0.005836
			 0.857605 -0.513899  0.020533
			 0.669659 -0.700910 -0.245523
			 0.606897 -0.598422 -0.523036
			 0.706400 -0.406013  0.579786
			 0.716066 -0.405911  0.567879
			 0.723808 -0.416367  0.550219
			 0.706682 -0.405807  0.579586
			 0.748438 -0.583290  0.315617
			 0.810048 -0.448771  0.377395
			 0.719889 -0.516756  0.463382
			 0.739211 -0.456161  0.495464
			 0.713458 -0.491090  0.499808
			 0.728245 -0.465118  0.503313
			 0.698234 -0.482305  0.529010
			-0.570767 -0.019469  0.820881
			 0.155225 -0.561549  0.812753
			-0.061758 -0.443093  0.894346
			-0.436030 -0.102857  0.894035
			-0.289593 -0.231609  0.928705
			 0.022992 -0.504468  0.863124
			 0.664535 -0.579829  0.471373
			 0.634376 -0.652201  0.414971
			 0.541971 -0.672287  0.504280
			 0.434603 -0.686627  0.582806
			 0.318205 -0.685071  0.655304
			 0.069358 -0.625664  0.777003
			 0.134898 -0.610137  0.780727
			 0.710851 -0.543288  0.446686
			-0.793281  0.474967 -0.380935
			-0.885858  0.463860 -0.009440
			-0.893982  0.448024  0.008462
			-0.874460  0.453454  0.172335
			-0.961325  0.231090  0.149839
			-0.944613  0.256562  0.204650
			-0.954249  0.259306  0.148892
			-0.827046  0.428888 -0.363387
			-0.650687  0.337630 -0.680156
			-0.698183  0.057333  0.713619
			-0.796822  0.280690  0.535058
			-0.962083  0.272318  0.015474
			-0.951950  0.299577  0.063601
			-0.895405  0.401884  0.191672
			-0.924622  0.187502  0.331538
			-0.932910  0.036502  0.358255
			-0.945894 -0.073073  0.316142
			-0.986274 -0.084652  0.141764
			-0.891074  0.334937  0.306276
			-0.745378  0.600486  0.289531
			-0.770205  0.475351  0.425236
			-0.761653  0.621556  0.183176
			-0.750972  0.629232  0.200269
			-0.750349  0.529832  0.395290
			-0.962400  0.092443  0.255423
			-0.965698  0.177953  0.189102
			 0.188623  0.204291 -0.960566
			-0.120544  0.130717 -0.984064
			 0.158221  0.023351 -0.987128
			 0.023734 -0.016709 -0.999579
			 0.355085 -0.002571 -0.934831
			 0.394635  0.272515 -0.877496
			 0.363621  0.275389 -0.889911
			 0.346793  0.355263 -0.868057
			 0.274449  0.391701 -0.878207
			 0.109004  0.329108 -0.937980
			-0.476414  0.373362 -0.796009
			-0.209774  0.337561 -0.917631
			-0.334501  0.424106 -0.841572
			-0.066577  0.293663 -0.953588
			-0.196095  0.518088 -0.832545
			-0.291156  0.570888 -0.767669
			-0.351560  0.419918 -0.836705
			-0.126136  0.442006 -0.888099
			 0.017736  0.381812 -0.924070
			 0.181173  0.416586 -0.890861
			 0.509933 -0.293898 -0.808450
			 0.439105 -0.208203 -0.873978
			 0.509772 -0.117355 -0.852268
			 0.548681 -0.655046 -0.519484
			 0.576093 -0.443071 -0.686881
			 0.603120 -0.558329 -0.569662
			 0.724098 -0.684464  0.084800
			 0.725774 -0.664326 -0.178673
			 0.712260 -0.698030  0.073761
			 0.680563 -0.465320  0.565960
			 0.847084 -0.413787  0.333510
			 0.695835 -0.436814  0.570095
			 0.686318 -0.449337  0.571896
			 0.751904 -0.429236  0.500397
			 0.790249 -0.422689  0.443668
			 0.796513 -0.584278  0.155517
			 0.808284 -0.588392  0.021698
			 0.850843 -0.473968  0.226759
			 0.876246 -0.377160  0.299905
			 0.717092 -0.521503  0.462400
			 0.690353 -0.623240  0.367403
			 0.676548 -0.607157  0.416704
			 0.696428 -0.565280  0.442093
			 0.665943 -0.549368  0.504693
			-0.556111 -0.036025  0.830327
			-0.289775 -0.249674  0.923955
			-0.416233 -0.119275  0.901401