<?xml version="1.0"?>
<VTKFile type="PolyData" version="0.1" byte_order="LittleEndian" compressor="vtkZLibDataCompressor">
	<PolyData>
		<Piece NumberOfPoints="130" NumberOfVerts="0" NumberOfLines="0" NumberOfStrips="0" NumberOfPolys="256">
		<PointData Normals="Normals">
		<DataArray type="Float32" Name="Normals" NumberOfComponents="3" format="ascii">
			-0.006305  0.657386 -0.753528
			-0.102533  0.820779 -0.561969
			-0.309838  0.281955 -0.908021
			 0.214557  0.784586 -0.581713
			 0.080603 -0.005829 -0.996729
			 0.459294  0.220657 -0.860441
			-0.406633  0.597238 -0.691344
			-0.551362  0.793978 -0.256122
			 0.134951  0.978062  0.158693
			-0.364767  0.844532  0.392059
			 0.455789  0.850162 -0.263593
			-0.287679  0.956205  0.053971
			-0.334722  0.117637 -0.934945
			-0.517958  0.076945 -0.851938
			-0.513765 -0.159265 -0.843019
			-0.165013 -0.199612 -0.965881
			-0.413285 -0.169198 -0.894744
			 0.680472  0.664248 -0.309408
			 0.854268  0.298802 -0.425374
			 0.461946 -0.256563 -0.848989
			-0.021480 -0.335044 -0.941958
			 0.179187 -0.386504 -0.904714
			 0.879172 -0.197202 -0.433784
			-0.908370  0.183794 -0.375611
			-0.522220  0.154769 -0.838649
			-0.867849  0.425629  0.256278
			-0.954394  0.294983  0.046015
			 0.755826  0.654601  0.015011
			 0.386522  0.771890  0.504764
			 0.737042  0.664401  0.123857
			 0.246046  0.498052  0.831508
			-0.118118  0.835057  0.537334
			-0.816920  0.386540  0.428052
			-0.823759  0.258027  0.504820
			-0.794913  0.360899  0.487715
			-0.861647  0.229727  0.452537
			 0.839086  0.499176 -0.216235
			 0.907230  0.368442 -0.202938
			-0.520554 -0.206695 -0.828433
			-0.336878 -0.125644 -0.933128
			-0.509844 -0.168241 -0.843655
			-0.572504 -0.229738 -0.787058
			-0.554228 -0.248016 -0.794556
			-0.349114 -0.299485 -0.887935
			 0.973400 -0.003500 -0.229084
			 0.462460 -0.349913 -0.814673
			-0.251557 -0.361181 -0.897924
			-0.139763 -0.413783 -0.899583
			 0.028490 -0.477448 -0.878198
			 0.324110 -0.540078 -0.776704
			 0.792707 -0.489360 -0.363514
			 0.890793 -0.405273  0.205527
			 0.825033 -0.564672  0.021573
			-0.968955 -0.111160  0.220838
			-0.894224 -0.191190 -0.404735
			 0.956892  0.273884 -0.096674
			 0.958384  0.232438 -0.165747
			 0.770264  0.560105  0.304920
			 0.765056  0.026848  0.643404
			 0.971677  0.215681 -0.096566
			 0.963747  0.266751 -0.006040
			 0.068428 -0.023342  0.997383
			-0.454087  0.605614  0.653480
			 0.344029 -0.169525  0.923529
			 0.316360 -0.163915  0.934370
			 0.258721 -0.219445  0.940695
			-0.902541  0.226185  0.366416
			-0.985456  0.012339  0.169480
			-0.922167 -0.103493  0.372689
			-0.774478 -0.250406 -0.580931
			-0.334146 -0.723411 -0.604171
			-0.150435 -0.783095 -0.603433
			-0.646419 -0.595086 -0.477510
			-0.406716 -0.626223 -0.665152
			 0.983748 -0.029380 -0.177136
			 0.005823 -0.622814 -0.782348
			 0.221294 -0.844045 -0.488484
			 0.394944 -0.782506 -0.481356
			 0.556364 -0.793705 -0.245951
			 0.655484 -0.755089 -0.013438
			 0.757140 -0.641835  0.121602
			 0.283361 -0.520217  0.805655
			 0.347201 -0.360988  0.865529
			 0.613717 -0.685077  0.392456
			 0.614295 -0.396148  0.682429
			 0.660830 -0.720944  0.208671
			 0.666787 -0.743791  0.046584
			 0.659594 -0.748413  0.069382
			 0.661762 -0.739700  0.122124
			 0.752111 -0.651324  0.100529
			 0.762750 -0.640418  0.089874
			-0.970840 -0.225878  0.080306
			-0.907549 -0.176130  0.381225
			 0.342002 -0.297549  0.891347
			-0.063202 -0.286176  0.956090
			-0.511020  0.053546  0.857899
			 0.237675 -0.376720  0.895317
			 0.279436 -0.327164  0.902707
			-0.693360  0.103961  0.713052
			-0.782095 -0.037287  0.622042
			-0.482368 -0.283102  0.828960
			-0.489456 -0.451105  0.746282
			-0.432402 -0.712488  0.552620
			-0.792469 -0.379776  0.477245
			-0.905614 -0.418866  0.066434
			-0.291119 -0.939428 -0.180901
			 0.340795 -0.911604  0.229861
			-0.738432 -0.673841  0.025632
			 0.646747 -0.730769  0.218393
			 0.391418 -0.752794  0.529238
			 0.294160 -0.767928  0.568996
			 0.169493 -0.764500  0.621942
			 0.141499 -0.797385  0.586648
			 0.409116 -0.731325  0.545700
			 0.164651 -0.615258  0.770940
			 0.110733 -0.803275  0.585224
			 0.460976 -0.792353  0.399597
			 0.519613 -0.835936  0.176675
			-0.897767 -0.343164  0.276140
			-0.902961 -0.425482  0.060215
			-0.875355 -0.467087  0.124838
			-0.866313 -0.497407  0.045692
			-0.839502 -0.523732 -0.144712
			 0.089005 -0.675782  0.731708
			-0.071346 -0.972227  0.222898
			-0.650903 -0.746314  0.139070
			-0.551886 -0.831231  0.066919
			-0.823093 -0.555912  0.116101
			-0.789567 -0.585466  0.183887
			-0.576847 -0.814873  0.056842
		</DataArray>
	</PointData>
	<Points>
		<DataArray type="Float32" NumberOfComponents="3" format="ascii">
			 0.104206  0.031725  0.005107
			 0.094254  0.032434  0.008425
			 0.099289  0.030901  0.005076
			 0.104931  0.032459  0.005840
			 0.103284  0.030233  0.004159
			 0.104764  0.031082  0.004819
			 0.090819  0.032656  0.009148
			 0.090986  0.033628  0.010423
			 0.103168  0.034745  0.011724
			 0.093655  0.034344  0.016305
			 0.105496  0.034111  0.010511
			 0.091721  0.034225  0.013110
			 0.093935  0.031780  0.008157
			 0.095424  0.031254  0.007127
			 0.098303  0.028897  0.005653
			 0.100951  0.028829  0.004731
			 0.099267  0.028799  0.005102
			 0.105538  0.033074  0.007935
			 0.105473  0.031822  0.005576
			 0.104249  0.029180  0.004805
			 0.102476  0.028904  0.004566
			 0.103311  0.028998  0.004649
			 0.105004  0.029876  0.005319
			 0.090178  0.032011  0.009480
			 0.090649  0.032193  0.008939
			 0.090791  0.033497  0.013387
			 0.090286  0.032736  0.011641
			 0.106886  0.033265  0.013747
			 0.106372  0.032409  0.016955
			 0.107376  0.032185  0.015960
			 0.102683  0.031983  0.018942
			 0.094759  0.032687  0.018511
			 0.093447  0.031404  0.019062
			 0.092601  0.032954  0.016527
			 0.091703  0.033324  0.014994
			 0.093057  0.032216  0.017810
			 0.106045  0.033337  0.010371
			 0.106708  0.032964  0.012159
			 0.090670  0.031010  0.009208
			 0.092298  0.030714  0.008850
			 0.095646  0.029845  0.007327
			 0.097166  0.029235  0.006326
			 0.097518  0.027667  0.006659
			 0.096230  0.019392  0.009107
			 0.107262  0.031847  0.014001
			 0.104425  0.027898  0.005385
			 0.097917  0.019096  0.008654
			 0.099616  0.018934  0.008341
			 0.101798  0.019667  0.007798
			 0.102523  0.019675  0.007883
			 0.103913  0.020452  0.008512
			 0.106418  0.025845  0.015460
			 0.104965  0.022249  0.012238
			 0.090090  0.030881  0.010578
			 0.090244  0.030764  0.009823
			 0.107398  0.032120  0.014826
			 0.107138  0.032616  0.013875
			 0.107456  0.032015  0.016468
			 0.107933  0.030348  0.017174
			 0.107672  0.031439  0.015832
			 0.107751  0.031231  0.016409
			 0.094781  0.030366  0.021491
			 0.094543  0.030964  0.021067
			 0.103982  0.029801  0.018620
			 0.102072  0.029837  0.019350
			 0.099815  0.029675  0.019999
			 0.093629  0.030580  0.020123
			 0.093482  0.029056  0.019856
			 0.093311  0.021424  0.016663
			 0.092544  0.020440  0.010428
			 0.095133  0.018829  0.009813
			 0.098339  0.018332  0.008926
			 0.092921  0.019575  0.010460
			 0.093956  0.019200  0.010144
			 0.107837  0.030432  0.016186
			 0.100879  0.019038  0.008158
			 0.101449  0.018767  0.008520
			 0.102281  0.019252  0.008195
			 0.102965  0.019621  0.008460
			 0.103531  0.019954  0.008718
			 0.103977  0.020567  0.009268
			 0.100538  0.020575  0.015508
			 0.106824  0.029438  0.017416
			 0.104475  0.021624  0.014004
			 0.107549  0.029177  0.017064
			 0.103667  0.020390  0.009733
			 0.104099  0.021201  0.013116
			 0.103692  0.020812  0.012259
			 0.103786  0.020654  0.010456
			 0.103900  0.020905  0.011154
			 0.103796  0.020856  0.011700
			 0.092144  0.022444  0.013235
			 0.092841  0.020962  0.015942
			 0.105838  0.029627  0.017871
			 0.094813  0.028996  0.021106
			 0.094241  0.030178  0.021268
			 0.097647  0.029459  0.020402
			 0.096008  0.029201  0.020794
			 0.093832  0.029976  0.020959
			 0.093707  0.028448  0.020730
			 0.093609  0.026764  0.020459
			 0.093397  0.021790  0.017598
			 0.093585  0.019623  0.016185
			 0.093200  0.020273  0.016115
			 0.092623  0.020109  0.010928
			 0.094090  0.018918  0.010629
			 0.099587  0.017884  0.011669
			 0.093098  0.019335  0.010932
			 0.103423  0.019986  0.009271
			 0.101167  0.020089  0.014608
			 0.100287  0.019793  0.014843
			 0.098591  0.019526  0.015036
			 0.096880  0.019287  0.015151
			 0.102066  0.020364  0.014340
			 0.094794  0.019770  0.016160
			 0.095700  0.019166  0.015284
			 0.102635  0.020527  0.014106
			 0.103540  0.020892  0.013601
			 0.092782  0.020373  0.015227
			 0.092776  0.019903  0.014536
			 0.092887  0.019814  0.011398
			 0.092550  0.020641  0.013151
			 0.092676  0.020269  0.013871
			 0.094145  0.019640  0.016187
			 0.095601  0.018616  0.014134
			 0.093366  0.019203  0.014826
			 0.093661  0.018882  0.012330
			 0.093038  0.019744  0.011915
			 0.093097  0.019725  0.012712
			 0.094210  0.018825  0.013547
		</DataArray>
	</Points>
			<Polys>
				<DataArray type="Int32" Name="connectivity" format="ascii">
					2 1 0 
					0 1 3 
					0 4 2 
					0 5 4 
					0 3 5 
					7 1 6 
					1 9 8 
					10 3 1 
					8 10 1 
					11 1 7 
					9 1 11 
					1 13 12 
					1 2 13 
					1 12 6 
					13 2 14 
					2 4 15 
					16 2 15 
					14 2 16 
					18 3 17 
					3 18 5 
					17 3 10 
					4 5 19 
					15 4 20 
					20 4 21 
					21 4 19 
					19 5 22 
					5 18 22 
					24 23 6 
					23 7 6 
					12 24 6 
					25 11 7 
					7 26 25 
					7 23 26 
					10 8 27 
					29 8 28 
					28 8 30 
					31 8 9 
					30 8 31 
					8 29 27 
					32 31 9 
					9 34 33 
					9 11 34 
					9 35 32 
					9 33 35 
					10 36 17 
					37 10 27 
					37 36 10 
					11 25 34 
					24 12 38 
					38 12 39 
					12 13 40 
					39 12 40 
					41 13 14 
					40 13 41 
					41 14 42 
					42 14 16 
					20 43 15 
					16 15 43 
					42 16 43 
					17 36 18 
					18 36 37 
					37 44 18 
					22 18 44 
					19 22 45 
					21 19 45 
					20 46 43 
					20 21 45 
					20 47 46 
					48 47 20 
					49 48 20 
					45 49 20 
					50 45 22 
					22 44 51 
					52 50 22 
					22 51 52 
					24 38 23 
					23 53 26 
					23 38 54 
					54 53 23 
					34 25 53 
					26 53 25 
					55 27 29 
					55 56 27 
					27 56 37 
					29 28 57 
					30 58 28 
					58 57 28 
					29 59 55 
					60 29 57 
					60 59 29 
					62 61 30 
					30 31 62 
					58 30 63 
					63 30 64 
					30 61 65 
					64 30 65 
					32 62 31 
					32 66 62 
					66 32 67 
					32 35 68 
					67 32 68 
					33 34 53 
					35 33 53 
					53 68 35 
					37 56 44 
					38 69 54 
					38 39 69 
					69 39 40 
					69 40 43 
					43 40 42 
					42 40 41 
					43 71 70 
					43 46 71 
					72 69 43 
					43 70 73 
					43 73 72 
					44 56 55 
					59 74 44 
					55 59 44 
					44 74 51 
					50 49 45 
					71 46 47 
					47 75 71 
					75 47 48 
					76 48 49 
					76 75 48 
					77 76 49 
					78 49 50 
					78 77 49 
					79 78 50 
					80 79 50 
					80 50 52 
					51 82 81 
					81 83 51 
					51 58 84 
					84 82 51 
					74 58 51 
					51 83 52 
					85 80 52 
					87 52 86 
					52 89 88 
					52 88 85 
					52 87 90 
					89 52 90 
					86 52 83 
					69 91 53 
					53 92 68 
					53 91 92 
					54 69 53 
					58 60 57 
					93 58 63 
					82 58 93 
					84 58 82 
					58 74 60 
					74 59 60 
					61 95 94 
					62 95 61 
					65 61 96 
					96 61 97 
					97 61 94 
					66 98 62 
					62 98 95 
					93 63 81 
					81 63 64 
					64 65 81 
					81 65 96 
					98 66 99 
					99 66 67 
					101 100 67 
					101 67 68 
					99 67 100 
					101 68 102 
					103 102 68 
					92 103 68 
					69 72 104 
					91 69 104 
					70 105 73 
					71 105 70 
					75 76 71 
					106 71 76 
					71 106 105 
					72 107 104 
					105 107 72 
					73 105 72 
					76 77 78 
					78 106 76 
					79 106 78 
					80 108 79 
					106 79 108 
					80 85 108 
					81 110 109 
					81 112 111 
					96 97 81 
					101 81 100 
					113 83 81 
					109 113 81 
					111 110 81 
					115 81 114 
					115 112 81 
					81 82 93 
					81 94 100 
					81 97 94 
					101 114 81 
					83 113 116 
					117 86 83 
					116 117 83 
					88 106 85 
					106 108 85 
					87 86 117 
					90 87 88 
					87 117 88 
					117 106 88 
					88 89 90 
					119 118 91 
					91 104 120 
					91 120 121 
					91 118 92 
					91 121 122 
					91 122 119 
					118 103 92 
					95 98 94 
					94 98 99 
					100 94 99 
					123 114 101 
					102 123 101 
					124 115 102 
					125 102 103 
					102 115 123 
					102 125 124 
					118 125 103 
					104 107 120 
					106 124 105 
					126 105 124 
					126 107 105 
					106 113 109 
					106 110 111 
					109 110 106 
					111 112 106 
					116 106 117 
					116 113 106 
					106 112 124 
					127 107 126 
					127 120 107 
					115 124 112 
					115 114 123 
					118 119 125 
					119 122 125 
					121 120 127 
					129 121 128 
					122 121 129 
					128 121 127 
					125 122 129 
					126 124 129 
					124 125 129 
					126 129 128 
					128 127 126 
				</DataArray>
				<DataArray type="Int32" Name="offsets" format="ascii">
					3 6 9 12 15 18 21 24 27 30 33 36 39 42 45 48 51 54 57 60 63 66 69 72 75 78 81 84 87 90 93 96 99 102 105 108 111 114 117 120 123 126 129 132 135 138 141 144 147 150 153 156 159 162 165 168 171 174 177 180 183 186 189 192 195 198 201 204 207 210 213 216 219 222 225 228 231 234 237 240 243 246 249 252 255 258 261 264 267 270 273 276 279 282 285 288 291 294 297 300 303 306 309 312 315 318 321 324 327 330 333 336 339 342 345 348 351 354 357 360 363 366 369 372 375 378 381 384 387 390 393 396 399 402 405 408 411 414 417 420 423 426 429 432 435 438 441 444 447 450 453 456 459 462 465 468 471 474 477 480 483 486 489 492 495 498 501 504 507 510 513 516 519 522 525 528 531 534 537 540 543 546 549 552 555 558 561 564 567 570 573 576 579 582 585 588 591 594 597 600 603 606 609 612 615 618 621 624 627 630 633 636 639 642 645 648 651 654 657 660 663 666 669 672 675 678 681 684 687 690 693 696 699 702 705 708 711 714 717 720 723 726 729 732 735 738 741 744 747 750 753 756 759 762 765 768 
				</DataArray>
			</Polys>
		</Piece>
	</PolyData>
</VTKFile>
