<?xml version="1.0"?>
<VTKFile type="PolyData" version="0.1" byte_order="LittleEndian" compressor="vtkZLibDataCompressor">
	<PolyData>
		<Piece NumberOfPoints="3300" NumberOfVerts="0" NumberOfLines="0" NumberOfStrips="0" NumberOfPolys="3773">
		<PointData Normals="Normals">
		<DataArray type="Float32" Name="Normals" NumberOfComponents="3" format="ascii">
			 0.592073 -0.014283 -0.805758
			 0.178483 -0.848646 -0.497939
			 0.408200 -0.520193 -0.750181
			 0.325126 -0.741549 -0.586854
			 0.502474  0.150393 -0.851411
			 0.879057 -0.368412 -0.302542
			 0.719805 -0.210923 -0.661357
			 0.800574 -0.426680 -0.420743
			 0.754269 -0.190656 -0.628274
			 0.536336 -0.645595 -0.543646
			 0.426347 -0.671098 -0.606511
			 0.299459 -0.555458 -0.775752
			 0.160606 -0.441241 -0.882900
			 0.222673 -0.838537 -0.497265
			 0.523671 -0.352034 -0.775784
			-0.065030 -0.229806 -0.971061
			-0.005767 -0.838458 -0.544936
			-0.077249 -0.786068 -0.613295
			-0.358415 -0.794970 -0.489450
			 0.120897 -0.925317 -0.359405
			 0.402468 -0.701924 -0.587642
			 0.209281 -0.220235 -0.952732
			-0.297615  0.951384  0.079330
			 0.340628 -0.659970 -0.669636
			 0.386080 -0.818093 -0.426223
			 0.795795 -0.549739 -0.253962
			 0.667220  0.121338 -0.734911
			 0.772093 -0.014551 -0.635343
			 0.918243 -0.322414 -0.229954
			 0.830843 -0.556303  0.015068
			 0.835514 -0.538853 -0.107485
			 0.887911 -0.452711 -0.081649
			 0.629403 -0.695894 -0.345808
			 0.892270 -0.416384 -0.174584
			 0.731318 -0.150893 -0.665135
			 0.723003 -0.568089 -0.393117
			 0.386993 -0.798576 -0.460991
			 0.843238 -0.115689 -0.524943
			 0.474907 -0.111445 -0.872951
			-0.130165 -0.128309 -0.983155
			-0.086679 -0.036460 -0.995569
			 0.527037 -0.020196 -0.849602
			-0.087829 -0.000147 -0.996136
			 0.517035 -0.069872 -0.853107
			 0.870161 -0.219269 -0.441296
			-0.401011 -0.505511 -0.763969
			-0.313134 -0.089637 -0.945469
			-0.361816 -0.145552 -0.920817
			-0.294852 -0.339847 -0.893066
			 0.328951 -0.463730 -0.822645
			 0.266224 -0.615607 -0.741723
			 0.535237 -0.578143 -0.615850
			-0.419053  0.100433 -0.902390
			-0.046913  0.008703 -0.998861
			 0.392830 -0.912112 -0.117206
			 0.143054 -0.045997 -0.988645
			-0.418174  0.213903 -0.882823
			 0.112183  0.004624 -0.993677
			 0.667670 -0.070079 -0.741152
			 0.927362 -0.066092 -0.368283
			 0.831405  0.216006 -0.511965
			 0.270204 -0.931010 -0.245379
			 0.802414 -0.542211 -0.249279
			 0.935653  0.349724  0.047392
			 0.540098 -0.640260 -0.546224
			 0.122978 -0.676286 -0.726302
			 0.884729  0.049556 -0.463463
			 0.768510 -0.628454 -0.120161
			 0.779112 -0.582464 -0.231777
			 0.260555 -0.951259 -0.164978
			 0.901468 -0.328191 -0.282216
			 0.846323 -0.500962 -0.181035
			 0.868416 -0.485803 -0.099240
			 0.956073 -0.072925 -0.283913
			 0.604778  0.003889 -0.796385
			 0.917716 -0.290224 -0.271234
			 0.974887 -0.159518  0.155403
			 0.956331 -0.273536 -0.102998
			 0.965674  0.176248 -0.190816
			 0.856631 -0.462442 -0.228758
			-0.675335 -0.695162 -0.246318
			-0.131329 -0.851311 -0.507960
			 0.500498 -0.543982 -0.673488
			 0.135213 -0.475211 -0.869421
			 0.029624 -0.411832 -0.910778
			-0.028841 -0.586132 -0.809702
			-0.551647 -0.310278 -0.774218
			 0.315593 -0.610458 -0.726458
			 0.130610 -0.693671 -0.708351
			-0.041016 -0.976580 -0.211208
			-0.698774 -0.266223 -0.663958
			-0.572525 -0.075408 -0.816412
			-0.411844 -0.019253 -0.911051
			-0.366859  0.391772 -0.843759
			-0.449236 -0.112150 -0.886346
			-0.407431 -0.048979 -0.911922
			-0.588733 -0.000910 -0.808327
			-0.091857  0.283693 -0.954506
			 0.632886  0.350233 -0.690502
			-0.446751  0.139676 -0.883688
			 0.649609  0.039407 -0.759246
			 0.726841  0.088398 -0.681093
			-0.335414  0.078524 -0.938793
			-0.487825 -0.217165 -0.845498
			 0.976749 -0.005062 -0.214326
			 0.176620 -0.580564 -0.794828
			-0.362893 -0.453046 -0.814284
			 0.568760 -0.581513 -0.581682
			 0.704097 -0.565755 -0.429150
			 0.335669 -0.393814 -0.855708
			 0.622502 -0.751881 -0.217175
			 0.908064  0.201295 -0.367286
			 0.488405 -0.698591 -0.522907
			 0.565833 -0.626147 -0.536444
			-0.154877  0.104585 -0.982382
			 0.366174  0.229945 -0.901688
			 0.308434  0.143239 -0.940400
			 0.771410  0.220887 -0.596771
			 0.631223 -0.770740 -0.086708
			 0.737044 -0.583188 -0.341552
			 0.590234 -0.605132 -0.534264
			 0.675542 -0.197491 -0.710380
			 0.175171 -0.960558 -0.215969
			-0.656645 -0.729038  0.193186
			 0.844640 -0.179384 -0.504385
			 0.752989  0.155326 -0.639438
			 0.364811  0.924668 -0.109099
			 0.540556  0.717128 -0.439916
			 0.924511  0.177204 -0.337460
			 0.973138  0.153208 -0.171845
			 0.690387  0.009930 -0.723372
			 0.843630 -0.308672 -0.439329
			 0.883756 -0.318773 -0.342577
			 0.903034 -0.075460 -0.422889
			 0.397407 -0.074329  0.914627
			 0.430619  0.401382  0.808368
			 0.330458 -0.363232  0.871126
			 0.730331  0.667948  0.143045
			 0.354488 -0.593926  0.722212
			-0.960954 -0.164383 -0.222589
			-0.939710 -0.168990  0.297301
			-0.586877 -0.808627 -0.041207
			-0.235141 -0.904626  0.355472
			 0.050524 -0.992837 -0.108273
			-0.223917 -0.941994 -0.250015
			-0.531203 -0.761053 -0.372318
			 0.436111 -0.883750  0.169684
			 0.016275 -0.981559  0.190464
			-0.412958 -0.871930  0.263066
			-0.557794 -0.828768  0.044828
			-0.685072  0.100840 -0.721462
			-0.826534 -0.003227 -0.562878
			-0.953426 -0.090701 -0.287668
			-0.408494 -0.174915 -0.895844
			-0.646474  0.034592 -0.762152
			 0.494139 -0.134981 -0.858840
			-0.222437  0.403312 -0.887615
			-0.542208  0.160407 -0.824791
			 0.759038 -0.341540 -0.554267
			 0.074553  0.985223 -0.154201
			-0.648383  0.008649 -0.761266
			-0.730689  0.068147 -0.679300
			-0.775397  0.086215 -0.625560
			 0.223551  0.161115 -0.961284
			-0.227477  0.072381 -0.971090
			-0.501366  0.322769 -0.802778
			-0.849000 -0.108861 -0.517057
			-0.253671 -0.524469 -0.812763
			 0.561424 -0.432984 -0.705215
			 0.306017 -0.502815 -0.808412
			-0.914350 -0.356260 -0.192468
			-0.770785 -0.478493 -0.420636
			-0.030942 -0.982506  0.183641
			-0.267720 -0.947830 -0.173044
			-0.224799 -0.917287 -0.328710
			-0.118502 -0.528783 -0.840444
			 0.314298 -0.917747 -0.242813
			-0.379381 -0.786317 -0.487623
			 0.786070 -0.599561 -0.150402
			 0.857449 -0.450161 -0.249272
			 0.875495 -0.182820 -0.447309
			-0.010970 -0.966155 -0.257729
			 0.727583  0.510214 -0.458591
			 0.860104  0.170322 -0.480845
			 0.673014 -0.657780 -0.338197
			 0.976464  0.215324  0.012381
			-0.059502 -0.523590 -0.849890
			 0.738875 -0.569747 -0.359796
			 0.299382 -0.765183 -0.569970
			 0.782346 -0.593928  0.187573
			 0.903907  0.160432 -0.396502
			 0.742131  0.266789 -0.614869
			 0.444617 -0.633362 -0.633379
			 0.511385 -0.243721 -0.824067
			-0.107799 -0.984033 -0.141625
			 0.391178  0.184765 -0.901577
			 0.455261  0.136713 -0.879799
			 0.434473  0.578199 -0.690593
			-0.682166 -0.580548  0.444537
			 0.854511  0.279567 -0.437782
			 0.661442  0.218987 -0.717314
			 0.454259  0.889835  0.042922
			 0.172225  0.978043 -0.117346
			 0.127769  0.914687 -0.383436
			 0.378105  0.912343  0.157056
			 0.441054  0.631524 -0.637691
			 0.064659  0.802606 -0.592994
			 0.522142  0.199628 -0.829166
			 0.810296 -0.229412 -0.539251
			 0.677129  0.128612 -0.724538
			 0.807169 -0.000020 -0.590320
			 0.508069 -0.790327  0.342417
			 0.610051  0.266018 -0.746372
			 0.149111  0.542092 -0.826984
			-0.084478  0.040074  0.995619
			-0.194312  0.086746  0.977097
			-0.024442 -0.086530  0.995949
			-0.514091  0.172415  0.840228
			-0.000451 -0.256167  0.966632
			 0.477256 -0.770223  0.423064
			 0.078160 -0.580891  0.810220
			 0.215801 -0.972799 -0.084216
			-0.970921 -0.088647  0.222383
			-0.723295 -0.234000  0.649683
			-0.109146 -0.988294  0.106593
			-0.310852 -0.943011 -0.118747
			 0.078364 -0.985645  0.149546
			 0.100729 -0.961426  0.255958
			-0.343897 -0.934728 -0.089544
			-0.261107 -0.937307 -0.230821
			-0.573419 -0.796093 -0.193459
			 0.171719 -0.975144  0.140026
			 0.151536 -0.966833  0.205600
			-0.530869 -0.847451 -0.002116
			-0.251850 -0.958507  0.133546
			-0.775249  0.196587 -0.600285
			-0.802198  0.196822 -0.563684
			-0.757585  0.284780 -0.587337
			-0.906060 -0.131896 -0.402069
			-0.946608  0.042187  0.319615
			-0.915177 -0.328037 -0.234187
			-0.591543 -0.721182 -0.360518
			-0.195714  0.358358 -0.912839
			 0.755365 -0.116917 -0.644790
			 0.877899 -0.208283 -0.431175
			-0.509819  0.153096 -0.846550
			-0.239562  0.700799 -0.671930
			-0.253392  0.928605 -0.271083
			-0.762322  0.139228 -0.632045
			 0.700857 -0.120582 -0.703036
			 0.157830  0.144563 -0.976827
			-0.478579  0.442871 -0.758174
			-0.865314  0.070081 -0.496307
			-0.952280  0.076144 -0.295575
			-0.949507  0.176405 -0.259457
			-0.125050 -0.360158 -0.924472
			-0.458749 -0.040910 -0.887624
			-0.582484  0.212480 -0.784579
			 0.029138 -0.887004 -0.460841
			 0.020101 -0.964183 -0.264473
			-0.296114 -0.927336 -0.228835
			-0.590334 -0.758496 -0.276026
			-0.934368 -0.327581 -0.140166
			-0.116376 -0.963203  0.242274
			-0.487307 -0.844307  0.222886
			-0.496742 -0.853282 -0.158610
			-0.601056 -0.681659  0.417220
			 0.351575 -0.670916 -0.652891
			 0.543761  0.274475 -0.793087
			-0.053198  0.262352 -0.963505
			 0.625205  0.292811 -0.723450
			 0.968182  0.105039  0.227134
			 0.916501  0.258073 -0.305653
			 0.994804  0.101812  0.000005
			 0.380445  0.912085 -0.152850
			-0.894611 -0.441103  0.071405
			 0.735383 -0.656568 -0.167723
			 0.925834  0.134691 -0.353113
			 0.782916 -0.542421 -0.304668
			 0.933405 -0.358391  0.017631
			 0.746526 -0.647316  0.153888
			 0.100926 -0.994877  0.005803
			 0.502064 -0.182377 -0.845382
			 0.441678 -0.674405 -0.591691
			-0.267807 -0.890327  0.368235
			 0.220606 -0.661306  0.716943
			 0.133489 -0.832808  0.537226
			-0.089872 -0.955243  0.281838
			 0.621844  0.781548 -0.049932
			 0.889567  0.452456 -0.062887
			 0.180871 -0.654084 -0.734479
			-0.525173 -0.850622 -0.025226
			-0.108967 -0.574046 -0.811540
			 0.255366 -0.049433 -0.965580
			 0.347099  0.816293 -0.461723
			-0.103722  0.448489 -0.887750
			-0.107047  0.988889 -0.103147
			-0.022958  0.040072 -0.998933
			-0.602147  0.131917 -0.787412
			-0.046193  0.924754  0.377751
			 0.516230 -0.039536 -0.855537
			 0.841846 -0.209352 -0.497460
			 0.960499 -0.242333  0.136805
			-0.600387  0.196399 -0.775218
			 0.429613  0.834401  0.345265
			 0.365079  0.800839 -0.474737
			 0.443474  0.840564 -0.311101
			 0.567818  0.802562 -0.182966
			 0.247194  0.802488 -0.543054
			 0.488264  0.850613 -0.195080
			-0.000785  0.683688 -0.729774
			 0.312724  0.768192 -0.558645
			 0.661819  0.299831 -0.687093
			 0.885723 -0.190307 -0.423411
			 0.660289  0.411274 -0.628388
			 0.644803 -0.718434  0.260925
			 0.834959  0.344684 -0.428994
			 0.780967  0.221498 -0.583977
			 0.601789  0.276074 -0.749422
			 0.552496 -0.795004  0.250433
			 0.328542  0.308687 -0.892621
			 0.188766  0.288181 -0.938786
			-0.167346 -0.053618  0.984439
			-0.246227 -0.063864  0.967106
			-0.237302  0.034133  0.970836
			-0.073346 -0.085994  0.993592
			-0.305261 -0.155951  0.939412
			-0.450323 -0.641253  0.621292
			-0.050395 -0.266926  0.962399
			 0.490799 -0.862726 -0.121742
			 0.074471 -0.611048  0.788082
			 0.178361 -0.935176 -0.305995
			 0.294251 -0.940014 -0.172599
			-0.052707 -0.962059 -0.267702
			 0.341420 -0.939713 -0.019296
			 0.254789 -0.620680 -0.741511
			 0.227671 -0.618641 -0.751964
			 0.572641 -0.819734  0.010877
			 0.292036 -0.956407  0.000003
			-0.614605  0.454845  0.644498
			-0.608234 -0.088683  0.788788
			-0.646987 -0.762455 -0.008366
			 0.165695 -0.952373  0.255990
			-0.558760 -0.825585  0.078720
			 0.455990 -0.808220  0.372630
			 0.058093 -0.950437  0.305443
			 0.114068 -0.818563  0.562977
			 0.255076 -0.844452  0.470996
			 0.175305 -0.964904  0.195521
			 0.157726 -0.987184 -0.024290
			-0.401133 -0.905348  0.139419
			-0.900299 -0.385729  0.201680
			-0.529522 -0.844360 -0.081626
			-0.346810 -0.900836  0.261184
			 0.138385 -0.884284  0.445973
			 0.461508 -0.865286  0.195677
			 0.376715 -0.899211  0.222496
			-0.786364 -0.151678 -0.598853
			-0.780727  0.133124 -0.610527
			-0.401167 -0.420849 -0.813604
			-0.216953 -0.974247 -0.061432
			-0.994928  0.028375  0.096501
			-0.927441 -0.215275 -0.305793
			-0.894549  0.430961 -0.118556
			-0.163473 -0.557089 -0.814204
			 0.443869 -0.894976  0.044705
			 0.204560 -0.261035 -0.943407
			 0.835448 -0.353752 -0.420579
			 0.683236 -0.341936 -0.645189
			-0.305372  0.235299 -0.922704
			-0.238423  0.042115 -0.970248
			-0.730190 -0.520759 -0.442304
			 0.105581  0.426690  0.898214
			 0.273607 -0.317487  0.907932
			-0.813029  0.566607 -0.133938
			-0.430392  0.252408 -0.866633
			 0.262470 -0.218549 -0.939865
			-0.307333 -0.036163 -0.950915
			-0.731388  0.187377 -0.655714
			-0.559070  0.340667 -0.755901
			-0.523312  0.403182 -0.750726
			-0.161009  0.219297 -0.962281
			-0.482786 -0.666106 -0.568525
			-0.689301 -0.513042 -0.511520
			-0.967216 -0.229730  0.108245
			 0.039826 -0.966353 -0.254118
			-0.510365 -0.813093 -0.280014
			-0.361513 -0.851868 -0.378984
			-0.122104 -0.864449 -0.487666
			-0.169169 -0.812172 -0.558354
			-0.305830 -0.952075  0.004666
			 0.216938 -0.974357  0.059714
			-0.842991 -0.224795  0.488706
			-0.281931 -0.613278  0.737838
			-0.342061 -0.891772  0.296204
			-0.812505 -0.451365  0.368925
			-0.383686 -0.659549  0.646359
			-0.473826 -0.503295  0.722622
			 0.927092  0.246970  0.281967
			 0.512123 -0.522874 -0.681419
			-0.061141 -0.326540 -0.943204
			 0.747417 -0.664336 -0.005031
			 0.848154 -0.410136  0.335296
			 0.999973  0.007335  0.000020
			 0.924793  0.143480  0.352380
			 0.858927  0.177358  0.480404
			 0.740137  0.565611  0.363705
			-0.285134 -0.076957 -0.955393
			 0.466358 -0.884587 -0.003945
			 0.024046 -0.053816  0.998261
			-0.384262  0.026777 -0.922836
			-0.362973 -0.731682 -0.576968
			-0.453064 -0.891469  0.004157
			 0.339270 -0.683997  0.645790
			 0.301845  0.392736 -0.868705
			 0.117189  0.133026 -0.984160
			-0.283345 -0.017783 -0.958853
			-0.357707 -0.734210  0.577045
			-0.123175 -0.919310  0.373761
			 0.017667 -0.002453  0.999841
			 0.006560  0.107750  0.994156
			-0.003385  0.164532  0.986366
			 0.779958 -0.334613 -0.528866
			 0.881964 -0.471317  0.000421
			 0.925746 -0.327190 -0.189580
			 0.857616  0.115878 -0.501065
			 0.881936  0.390040 -0.264684
			 0.934282  0.355227  0.030511
			 0.833184  0.315212 -0.454363
			 0.476274  0.195045 -0.857392
			-0.229059 -0.585644  0.777530
			-0.399717 -0.662671  0.633319
			-0.101675 -0.465097  0.879401
			-0.456314 -0.813139 -0.361362
			-0.690003 -0.675463  0.260087
			 0.678473  0.542878  0.494932
			 0.779887 -0.155965  0.606177
			-0.172145 -0.519656 -0.836854
			-0.526178 -0.850319  0.009698
			 0.103589  0.913193 -0.394143
			 0.132124  0.900271 -0.414797
			 0.026830 -0.613081 -0.789565
			-0.184400  0.813384  0.551727
			-0.346934  0.613038  0.709804
			-0.937986  0.124808 -0.323428
			 0.197264  0.150646 -0.968707
			 0.610125 -0.332448 -0.719184
			-0.417385  0.249687 -0.873754
			 0.672089 -0.690974  0.266180
			 0.515286 -0.432380  0.739952
			-0.837050  0.215397 -0.502942
			 0.515802  0.836399 -0.185434
			 0.564283  0.459909 -0.685616
			 0.961651  0.266245  0.065883
			 0.870912  0.362905 -0.331378
			 0.974501 -0.128942 -0.183637
			 0.804232  0.524817 -0.278886
			 0.829453  0.474917 -0.294043
			 0.938543 -0.036994 -0.343174
			 0.989754  0.132845 -0.052335
			 0.642766  0.167662 -0.747490
			 0.679833 -0.187838 -0.708904
			 0.567859 -0.120565 -0.814248
			 0.993209 -0.115761  0.011586
			 0.275640 -0.164245 -0.947125
			 0.707601  0.023496 -0.706222
			-0.128319 -0.093079  0.987355
			-0.079433 -0.174433  0.981460
			-0.126601 -0.071875  0.989346
			-0.183121 -0.228869  0.956078
			-0.220802 -0.129315  0.966708
			-0.268727 -0.029477  0.962765
			-0.138292 -0.321679  0.936695
			 0.076229 -0.646235  0.759322
			 0.685430 -0.726595 -0.047379
			 0.012396 -0.671196  0.741176
			 0.635785 -0.771336  0.028589
			 0.268561 -0.963259 -0.002525
			-0.262864 -0.725552  0.635985
			-0.454794 -0.889637  0.041341
			-0.392503 -0.871602 -0.293685
			 0.106310 -0.602353 -0.791119
			 0.320770 -0.944481  0.071151
			-0.192900 -0.980904 -0.024842
			 0.982807 -0.107339  0.150227
			 0.560037 -0.761818 -0.325565
			 0.204174 -0.973873  0.099418
			 0.626990  0.350713  0.695618
			 0.187189 -0.525826  0.829739
			-0.507404 -0.065731  0.859198
			 0.384072 -0.252192  0.888194
			-0.090561 -0.322537  0.942215
			-0.645075 -0.274216  0.713220
			-0.876371 -0.187328  0.443715
			-0.415609 -0.189440  0.889596
			 0.053081 -0.101082  0.993461
			-0.665561 -0.104844  0.738943
			 0.478053 -0.343373  0.808431
			 0.446233 -0.424677  0.787735
			-0.186237 -0.418008  0.889149
			-0.431079 -0.284754  0.856205
			 0.180100 -0.281253  0.942582
			 0.092475 -0.668277  0.738142
			 0.305144 -0.423636  0.852889
			 0.249680 -0.919421 -0.303850
			 0.343384 -0.102717 -0.933561
			 0.786850 -0.341937 -0.513757
			 0.750634 -0.636895  0.175821
			-0.512532 -0.238971 -0.824745
			 0.358191 -0.403814 -0.841804
			 0.536457 -0.688562 -0.487951
			 0.339749 -0.408837 -0.847008
			 0.817778 -0.561335 -0.127053
			-0.189341 -0.966343 -0.174160
			 0.429901 -0.787915 -0.440880
			-0.055433 -0.836842 -0.544631
			 0.057116  0.269267 -0.961370
			-0.124894  0.097020 -0.987415
			-0.619656  0.241202 -0.746892
			-0.985266 -0.159726 -0.061147
			-0.612575 -0.451420  0.648824
			-0.223152  0.759820  0.610636
			-0.852807 -0.495198  0.165826
			-0.193209  0.058165  0.979432
			-0.166343 -0.836459  0.522175
			-0.641182 -0.718296 -0.270068
			 0.204515  0.374856 -0.904244
			-0.541704 -0.729419 -0.417738
			-0.755195 -0.544401 -0.365114
			 0.332899  0.339389 -0.879769
			 0.470497  0.298846 -0.830256
			 0.644884  0.168382 -0.745502
			-0.465997 -0.854484 -0.229575
			-0.206679 -0.974793 -0.084041
			-0.380332 -0.858186 -0.344767
			-0.570816 -0.791172 -0.219581
			-0.656691 -0.721087 -0.220886
			-0.732728 -0.663228  0.152441
			 0.374154 -0.564572  0.735708
			-0.180775 -0.480499  0.858162
			 0.499352  0.628851  0.595982
			-0.510247 -0.371159  0.775815
			 0.014711 -0.780152  0.625417
			-0.455219 -0.147699  0.878044
			-0.136254 -0.421983  0.896306
			-0.192275 -0.593797  0.781304
			 0.817167  0.527719 -0.231842
			 0.968799 -0.116285  0.218874
			-0.235669 -0.963743  0.125136
			-0.291965 -0.956410 -0.006018
			-0.073008 -0.960425  0.268802
			-0.253546 -0.843126  0.474186
			 0.758180 -0.641530  0.116628
			 0.818887 -0.520893  0.241028
			 0.908064  0.201295  0.367286
			 0.780838 -0.551685  0.293149
			 0.732605  0.665162 -0.144395
			-0.653031  0.454598 -0.605715
			 0.148870 -0.965880  0.211930
			 0.152312 -0.937979  0.311444
			 0.058480 -0.950815  0.304188
			-0.844098 -0.274578 -0.460548
			-0.320828 -0.808990 -0.492548
			-0.319416 -0.946710  0.041402
			-0.502703 -0.837141 -0.215602
			-0.266707 -0.825728  0.497031
			 0.215066 -0.533359  0.818092
			-0.390549 -0.872522  0.293559
			-0.450632 -0.871115  0.195165
			 0.818256  0.304290  0.487714
			 0.943193 -0.328938  0.046761
			 0.905264 -0.359869  0.225814
			 0.744462 -0.424620  0.515242
			 0.724658  0.315907  0.612432
			 0.503772 -0.140171 -0.852388
			 0.779686 -0.445870  0.439647
			 0.730273 -0.682214 -0.035857
			 0.365365 -0.900520 -0.235739
			 0.645157 -0.570914 -0.507769
			 0.025890 -0.350457  0.936221
			-0.222919 -0.491260  0.842004
			-0.675626 -0.460737  0.575545
			-0.699513 -0.623367  0.349420
			-0.814778 -0.471520  0.337350
			 0.979931 -0.107928  0.167591
			-0.090567 -0.988086 -0.124431
			-0.012882 -0.040443  0.999099
			 0.265109  0.634807  0.725767
			 0.031851  0.167981 -0.985275
			 0.018626 -0.698042 -0.715814
			 0.212956 -0.952729 -0.216698
			-0.711835  0.020891 -0.702036
			-0.349720 -0.349617 -0.869174
			 0.488799  0.269473 -0.829735
			 0.762545 -0.175493 -0.622678
			 0.245932  0.247236 -0.937226
			 0.065572 -0.016226 -0.997716
			 0.517768  0.313758 -0.795910
			 0.469165 -0.815220  0.339558
			-0.031066 -0.301269 -0.953033
			 0.237545 -0.560142  0.793608
			 0.957446 -0.241706  0.157720
			 0.931028  0.364947  0.001080
			 0.842872  0.538092 -0.004794
			 0.868931  0.494729 -0.014230
			 0.910341  0.413774 -0.008370
			 0.896466 -0.296308 -0.329471
			 0.982664 -0.179219 -0.047455
			 0.997901  0.064757 -0.000242
			 0.966997 -0.254746 -0.004577
			 0.346816 -0.603187 -0.718251
			 0.706600 -0.573455 -0.414567
			 0.113561 -0.377627 -0.918968
			 0.846666  0.366318  0.385963
			 0.555681 -0.206590 -0.805320
			 0.737715 -0.403365 -0.541362
			-0.501940 -0.246315  0.829087
			-0.538417 -0.305113 -0.785502
			-0.560716 -0.310989  0.767387
			-0.954481 -0.297929 -0.014314
			-0.405169 -0.698049  0.590394
			-0.176885 -0.971817 -0.155831
			-0.196403 -0.631170  0.750367
			 0.024241 -0.468393  0.883188
			-0.098159 -0.820314  0.563426
			 0.644672 -0.728539  0.231580
			 0.475504 -0.388469  0.789296
			 0.206640 -0.975291 -0.078153
			-0.086114 -0.396849  0.913835
			 0.044482 -0.644174 -0.763584
			-0.116319 -0.533071  0.838037
			-0.371796 -0.850316  0.372466
			-0.526206 -0.753775  0.393612
			-0.458060 -0.886443  0.066328
			 0.091629 -0.611941  0.785578
			 0.076456 -0.521331  0.849923
			 0.895938 -0.296821  0.330443
			 0.568666 -0.726112 -0.386498
			 0.675055  0.252537  0.693200
			 0.438705 -0.821597 -0.364028
			 0.070130 -0.553868 -0.829646
			 0.065804 -0.556975 -0.827918
			 0.338506 -0.938299  0.070768
			 0.348926 -0.598774 -0.720916
			 0.259498 -0.388255  0.884262
			 0.629608  0.276150  0.726179
			-0.647439  0.080101  0.757897
			-0.650426 -0.408014  0.640679
			 0.409669 -0.672111  0.616796
			-0.449658 -0.202956  0.869837
			 0.069444  0.941095 -0.330935
			 0.557941  0.764023  0.323991
			 0.017471  0.085800  0.996159
			-0.163075  0.128417  0.978221
			 0.889201 -0.446712 -0.098838
			 0.710722 -0.304192 -0.634304
			 0.439500 -0.883394 -0.162648
			 0.714975 -0.666819  0.210149
			 0.248308 -0.525083 -0.814021
			 0.647972 -0.410114 -0.641824
			 0.601019 -0.403610 -0.689837
			 0.583765 -0.396931 -0.708282
			 0.622415 -0.420700 -0.660009
			 0.575793 -0.625740 -0.526224
			 0.274047 -0.819292 -0.503645
			 0.174653 -0.924519  0.338764
			-0.301381 -0.937697 -0.172901
			-0.736503 -0.675825  0.028712
			 0.019463  0.234198 -0.971994
			-0.632247  0.215559 -0.744177
			-0.691915 -0.524007  0.496659
			-0.937344  0.027642  0.347306
			-0.981987  0.177110 -0.065828
			-0.686642 -0.552152 -0.472918
			-0.443924  0.832888 -0.330499
			-0.826246 -0.220562  0.518334
			-0.219442  0.128726  0.967096
			 0.178412 -0.433214  0.883456
			-0.612964 -0.667965  0.422016
			-0.397665 -0.855488 -0.331666
			-0.551075 -0.826292 -0.116440
			 0.115533 -0.958992  0.258817
			 0.289910  0.144956 -0.946013
			 0.441349  0.065210 -0.894963
			 0.439954 -0.053628 -0.896418
			 0.432488 -0.434301 -0.790150
			 0.185857 -0.969546  0.159491
			 0.178252 -0.927540 -0.328475
			-0.671338 -0.276038  0.687829
			-0.047340 -0.572672  0.818417
			-0.100628 -0.556133  0.824979
			-0.621248 -0.206194  0.755999
			-0.582860 -0.358156  0.729382
			 0.601583 -0.794970  0.078238
			 0.023716 -0.862680  0.505193
			 0.025312 -0.988738  0.147497
			-0.002554 -0.548043  0.836446
			-0.620948 -0.126951  0.773503
			-0.245737 -0.261150  0.933496
			-0.631588 -0.671515  0.387510
			-0.238865 -0.948702 -0.207143
			-0.606553 -0.651936  0.455053
			-0.632131 -0.746904  0.206265
			 0.219895 -0.965769  0.137606
			 0.909395 -0.415662 -0.015022
			 0.830596  0.225255  0.509284
			 0.646437 -0.728819  0.225704
			 0.960411  0.084363  0.265505
			 0.980039  0.190759 -0.055985
			 0.314298 -0.917747  0.242813
			 0.454869 -0.729099  0.511380
			 0.947304 -0.320199  0.009348
			 0.698187 -0.125953  0.704749
			 0.440142  0.403875 -0.801973
			-0.316751  0.270381 -0.909155
			-0.466389  0.038136 -0.883757
			-0.319854 -0.946577 -0.041064
			-0.349632 -0.719651 -0.599883
			 0.693422 -0.720530 -0.001541
			 0.460564 -0.884278 -0.077035
			-0.211346 -0.548139 -0.809245
			-0.218789 -0.064323 -0.973650
			-0.369449 -0.721255 -0.585916
			-0.467464 -0.883751 -0.021480
			-0.503759 -0.828555 -0.244385
			-0.365937 -0.758177  0.539683
			-0.540993 -0.762012  0.355898
			-0.489201 -0.846138  0.211504
			 0.263879 -0.964556 -0.000663
			-0.501681 -0.772741 -0.388829
			-0.504254 -0.790778 -0.346984
			-0.558029 -0.749292 -0.356602
			 0.380804  0.106895  0.918456
			 0.380804  0.106895  0.918456
			 0.960180  0.278793 -0.018118
			 0.959227  0.273253  0.072226
			 0.811947  0.193942  0.550571
			-0.504209 -0.862932 -0.033498
			-0.492245 -0.865483  0.092922
			 0.724301 -0.689259  0.017609
			-0.524300 -0.848336 -0.073723
			-0.597640 -0.780975  0.181397
			-0.669189  0.708787  0.223174
			-0.797802 -0.427121  0.425534
			-0.761746 -0.292319  0.578181
			-0.211167  0.976121 -0.050957
			 0.374255 -0.692533  0.616710
			 0.298384  0.940921 -0.160109
			 0.273541  0.935058  0.225482
			 0.783425  0.117557  0.610267
			 0.299411 -0.933718  0.196275
			 0.570546  0.810583 -0.132029
			 0.721119  0.579030 -0.380408
			-0.201431 -0.761124 -0.616535
			-0.349154 -0.537413 -0.767645
			-0.300953 -0.507131 -0.807617
			 0.376224  0.562069 -0.736569
			 0.153384 -0.479252 -0.864171
			 0.314801 -0.464611 -0.827670
			 0.810136  0.071084 -0.581917
			 0.880640 -0.183857 -0.436657
			 0.793086  0.147175 -0.591061
			 0.382447 -0.873142  0.302255
			 0.539373 -0.082531 -0.838013
			 0.630279  0.053293 -0.774537
			 0.714788  0.115183 -0.689791
			 0.483967 -0.206220 -0.850441
			 0.808800  0.123523 -0.574965
			 0.003623 -0.829212  0.558922
			 0.468489 -0.264595 -0.842916
			 0.769720 -0.613586  0.176192
			 0.874538 -0.473446 -0.105036
			 0.713059 -0.571124 -0.406649
			 0.780010  0.508948  0.364082
			 0.826415  0.462384  0.321309
			 0.993568  0.105641  0.040787
			 0.935691 -0.306787 -0.174254
			 0.985044 -0.171710 -0.014312
			 0.690433 -0.603058 -0.399529
			 0.986549 -0.163434 -0.003308
			 0.958703 -0.283965  0.015894
			 0.983866 -0.178908 -0.000296
			 0.261462 -0.703620 -0.660724
			 0.052229 -0.589184 -0.806309
			 0.623453  0.381784  0.682310
			 0.020757 -0.824675 -0.565226
			-0.260297 -0.199006 -0.944797
			-0.099692 -0.063220 -0.993008
			-0.663491 -0.627840 -0.406936
			-0.608540  0.109236 -0.785968
			-0.286342  0.059049 -0.956306
			-0.588858 -0.801827 -0.101591
			-0.290066 -0.919549  0.265124
			 0.037678 -0.997153 -0.065317
			 0.169218 -0.969372 -0.177995
			 0.090453 -0.399135  0.912420
			-0.473977 -0.694716 -0.541033
			-0.069090 -0.709304  0.701508
			-0.355136 -0.420419  0.834941
			-0.490508 -0.297795  0.818975
			 0.196446 -0.980465 -0.009861
			 0.027205 -0.999573  0.010627
			 0.786719 -0.340358  0.515005
			 0.576193  0.165366  0.800410
			 0.739997  0.220662  0.635384
			 0.841949 -0.327493  0.428801
			 0.004083 -0.229121 -0.973390
			-0.056327 -0.230671 -0.971400
			-0.151673 -0.270963 -0.950565
			-0.016379 -0.595285 -0.803348
			 0.908204 -0.411494  0.076404
			 0.338182 -0.289592 -0.895416
			-0.015443 -0.082178 -0.996498
			 0.241309  0.916818  0.318143
			 0.050291  0.929369  0.365710
			-0.408672 -0.583245  0.702006
			-0.247755 -0.811949  0.528542
			-0.089494  0.790431  0.605979
			-0.239170  0.683717  0.689441
			-0.565698 -0.269539  0.779317
			-0.025785 -0.996401  0.080752
			 0.145245 -0.736724 -0.660411
			 0.038185 -0.932394 -0.359422
			-0.300940 -0.952961 -0.036066
			 0.478434 -0.355670 -0.802870
			 0.707414 -0.265021 -0.655233
			 0.624121 -0.253289 -0.739133
			 0.728991 -0.348378 -0.589241
			 0.510241 -0.260209 -0.819723
			-0.345520 -0.832032 -0.433980
			 0.007084 -0.822469 -0.568766
			-0.213982 -0.975053 -0.059021
			-0.539128 -0.832716 -0.126194
			 0.149136 -0.934370 -0.323593
			-0.244181 -0.956994  0.156649
			-0.687554 -0.700748  0.190319
			-0.008602  0.186312 -0.982453
			-0.351727  0.451253 -0.820158
			-0.770634  0.097434  0.629785
			-0.630849 -0.052565  0.774123
			-0.926244 -0.089631  0.366113
			-0.351475 -0.341118  0.871839
			-0.758663 -0.592994  0.269793
			 0.209764 -0.041640 -0.976865
			 0.080749 -0.070634 -0.994229
			 0.263712 -0.254942 -0.930301
			 0.183492 -0.177285 -0.966903
			 0.623141 -0.779964  0.057884
			-0.051816 -0.889998  0.453012
			-0.471301 -0.366613  0.802166
			-0.586433 -0.380152  0.715249
			-0.009222 -0.471587  0.881771
			 0.085636 -0.596585  0.797968
			-0.036767 -0.631831  0.774233
			-0.254282 -0.373362  0.892156
			-0.242565 -0.549444  0.799546
			-0.461319 -0.291539  0.837968
			-0.683388 -0.517485  0.514966
			 0.340896  0.891439 -0.298540
			-0.914588 -0.356255  0.191339
			-0.711148 -0.630423  0.311184
			-0.759030 -0.620410  0.197395
			-0.868829 -0.494762 -0.018639
			-0.883644 -0.445092  0.145143
			-0.800074 -0.597154 -0.057354
			 0.452252  0.122902  0.883382
			 0.823272 -0.524861  0.216205
			 0.324203 -0.920868  0.216549
			 0.670216  0.147414  0.727379
			 0.793622  0.062465  0.605196
			 0.605121 -0.626208  0.491622