<?xml version="1.0"?>
<VTKFile type="PolyData" version="0.1" byte_order="LittleEndian" compressor="vtkZLibDataCompressor">
  <PolyData>
    <Piece NumberOfPoints="362" NumberOfVerts="0" NumberOfLines="0" NumberOfStrips="0" NumberOfPolys="720">
      <PointData Normals="Normals">
        <DataArray type="Float32" Name="Normals" NumberOfComponents="3" format="ascii" RangeMin="0.99999996087" RangeMax="1.0000000373">
          0 0 1 0 0 -1
          0.16459459066 0 0.98636132479 0.32469949126 0 0.94581723213
          0.47594740987 0 0.87947374582 0.61421275139 0 0.78914052248
          0.73572391272 0 0.67728155851 0.83716648817 0 0.5469481349
          0.91577333212 0 0.40169540048 0.96940028667 0 0.2454854548
          0.99658447504 0 0.082579307258 0.99658447504 0 -0.082579389215
          0.96940022707 0 -0.2454855293 0.91577333212 0 -0.40169548988
          0.83716642857 0 -0.5469481945 0.73572385311 0 -0.67728161812
          0.61421263218 0 -0.78914052248 0.47594732046 0 -0.87947380543
          0.32469940186 0 -0.94581729174 0.16459450126 0 -0.98636132479
          0.1565387547 0.050862528384 0.98636132479 0.30880755186 0.1003376618 0.94581723213
          0.45265287161 0.14707584679 0.87947374582 0.58415102959 0.1898021698 0.78914052248
          0.69971501827 0.22735120356 0.67728155851 0.79619264603 0.25869867206 0.5469481349
          0.87095218897 0.28298953176 0.40169540048 0.92195445299 0.29956117272 0.2454854548
          0.94780820608 0.30796155334 0.082579307258 0.94780814648 0.30796155334 -0.082579389215
          0.92195445299 0.29956117272 -0.2454855293 0.87095218897 0.28298953176 -0.40169548988
          0.79619258642 0.25869867206 -0.5469481945 0.69971495867 0.22735118866 -0.67728161812
          0.58415096998 0.1898021549 -0.78914052248 0.452652812 0.14707581699 -0.87947380543
          0.30880746245 0.100337632 -0.94581729174 0.1565386802 0.050862502307 -0.98636132479
          0.13315981627 0.096746280789 0.98636132479 0.26268738508 0.19085356593 0.94581723213
          0.38504952192 0.27975487709 0.87947374582 0.49690851569 0.36102518439 0.78914052248
          0.59521317482 0.43244767189 0.67728155851 0.67728191614 0.49207413197 0.5469481349
          0.74087619781 0.53827810287 0.40169540048 0.78426128626 0.5697991848 0.2454854548
          0.80625379086 0.58577769995 0.082579307258 0.80625379086 0.58577769995 -0.082579389215
          0.78426128626 0.5697991848 -0.2454855293 0.74087613821 0.53827804327 -0.40169548988
          0.67728185654 0.49207410216 -0.5469481945 0.59521311522 0.43244764209 -0.67728161812
          0.49690848589 0.36102515459 -0.78914052248 0.38504946232 0.27975481749 -0.87947380543
          0.26268732548 0.19085352123 -0.94581729174 0.13315975666 0.096746228635 -0.98636132479
          0.096746273339 0.13315983117 0.98636132479 0.19085355103 0.26268741488 0.94581723213
          0.27975484729 0.38504955173 0.87947374582 0.36102518439 0.49690854549 0.78914052248
          0.43244767189 0.59521317482 0.67728155851 0.49207410216 0.67728191614 0.5469481349
          0.53827804327 0.74087619781 0.40169540048 0.5697991848 0.78426128626 0.2454854548
          0.58577764034 0.80625379086 0.082579307258 0.58577764034 0.80625379086 -0.082579389215
          0.56979912519 0.78426128626 -0.2454855293 0.53827804327 0.74087619781 -0.40169548988
          0.49207407236 0.67728191614 -0.5469481945 0.43244761229 0.59521311522 -0.67728161812
          0.36102512479 0.49690848589 -0.78914052248 0.27975481749 0.38504949212 -0.87947380543
          0.19085350633 0.26268732548 -0.94581729174 0.096746221185 0.13315975666 -0.98636132479
          0.050862520933 0.1565387696 0.98636132479 0.1003376469 0.30880755186 0.94581723213
          0.14707581699 0.45265287161 0.87947374582 0.1898021549 0.58415102959 0.78914052248
          0.22735117376 0.69971501827 0.67728155851 0.25869864225 0.79619264603 0.5469481349
          0.28298950195 0.87095218897 0.40169540048 0.29956111312 0.92195445299 0.2454854548
          0.30796152353 0.94780820608 0.082579307258 0.30796152353 0.94780820608 -0.082579389215
          0.29956111312 0.92195445299 -0.2454855293 0.28298947215 0.87095218897 -0.40169548988
          0.25869864225 0.79619258642 -0.5469481945 0.22735115886 0.69971495867 -0.67728161812
          0.1898021251 0.58415096998 -0.78914052248 0.14707580209 0.452652812 -0.87947380543
          0.1003376171 0.30880749226 -0.94581729174 0.050862494856 0.1565386802 -0.98636132479
          -7.1946586466e-009 0.16459459066 0.98636132479 -1.419306539e-008 0.32469949126 0.94581723213
          -2.0804321821e-008 0.47594740987 0.87947374582 -2.684809175e-008 0.61421275139 0.78914052248
          -3.2159515939e-008 0.73572391272 0.67728155851 -3.6593711172e-008 0.83716648817 0.5469481349
          -4.0029725312e-008 0.91577333212 0.40169540048 -4.2373834219e-008 0.96940028667 0.2454854548
          -4.35620926e-008 0.99658447504 0.082579307258 -4.35620926e-008 0.99658447504 -0.082579389215
          -4.2373834219e-008 0.96940022707 -0.2454855293 -4.0029725312e-008 0.91577333212 -0.40169548988
          -3.659370762e-008 0.83716642857 -0.5469481945 -3.2159512386e-008 0.73572385311 -0.67728161812
          -2.6848088197e-008 0.61421263218 -0.78914052248 -2.0804320044e-008 0.47594732046 -0.87947380543
          -1.4193061837e-008 0.32469940186 -0.94581729174 -7.1946546498e-009 0.16459450126 -0.98636132479
          -0.050862535834 0.1565387547 0.98636132479 -0.10033766925 0.30880755186 0.94581723213
          -0.14707586169 0.45265287161 0.87947374582 -0.1898021996 0.58415102959 0.78914052248
          -0.22735123336 0.69971501827 0.67728155851 -0.25869870186 0.79619264603 0.5469481349
          -0.28298956156 0.87095218897 0.40169540048 -0.29956120253 0.92195445299 0.2454854548
          -0.30796158314 0.94780814648 0.082579307258 -0.30796158314 0.94780814648 -0.082579389215
          -0.29956120253 0.92195439339 -0.2454855293 -0.28298956156 0.87095212936 -0.40169548988
          -0.25869870186 0.79619258642 -0.5469481945 -0.22735121846 0.69971495867 -0.67728161812
          -0.1898021847 0.58415096998 -0.78914052248 -0.14707583189 0.452652812 -0.87947380543
          -0.1003376469 0.30880746245 -0.94581729174 -0.050862509757 0.1565386802 -0.98636132479
          -0.096746280789 0.13315981627 0.98636132479 -0.19085358083 0.26268738508 0.94581723213
          -0.27975487709 0.38504952192 0.87947374582 -0.3610252142 0.49690851569 0.78914052248
          -0.43244770169 0.59521311522 0.67728155851 -0.49207416177 0.67728191614 0.5469481349
          -0.53827810287 0.74087613821 0.40169540048 -0.5697992444 0.78426128626 0.2454854548
          -0.58577769995 0.80625373125 0.082579307258 -0.58577769995 0.80625373125 -0.082579389215
          -0.5697992444 0.78426122665 -0.2454855293 -0.53827810287 0.74087613821 -0.40169548988
          -0.49207413197 0.67728185654 -0.5469481945 -0.43244767189 0.59521305561 -0.67728161812
          -0.36102518439 0.49690845609 -0.78914052248 -0.27975484729 0.38504946232 -0.87947380543
          -0.19085353613 0.26268732548 -0.94581729174 -0.096746236086 0.13315974176 -0.98636132479
          -0.13315983117 0.096746265888 0.98636132479 -0.26268741488 0.19085355103 0.94581723213
          -0.38504955173 0.27975484729 0.87947374582 -0.49690854549 0.36102515459 0.78914052248
          -0.59521317482 0.43244764209 0.67728155851 -0.67728197575 0.49207407236 0.5469481349
          -0.74087625742 0.53827798367 0.40169540048 -0.78426134586 0.56979912519 0.2454854548
          -0.80625385046 0.58577764034 0.082579307258 -0.80625385046 0.58577758074 -0.082579389215
          -0.78426134586 0.56979912519 -0.2454855293 -0.74087619781 0.53827798367 -0.40169548988
          -0.67728191614 0.49207404256 -0.5469481945 -0.59521311522 0.43244758248 -0.67728161812
          -0.49690851569 0.36102509499 -0.78914052248 -0.38504949212 0.27975478768 -0.87947380543
          -0.26268735528 0.19085349143 -0.94581729174 -0.13315975666 0.096746213734 -0.98636132479
          -0.1565387696 0.050862513483 0.98636132479 -0.30880755186 0.100337632 0.94581723213
          -0.45265290141 0.14707580209 0.87947374582 -0.58415102959 0.1898021251 0.78914052248
          -0.69971507788 0.22735114396 0.67728155851 -0.79619264603 0.25869861245 0.5469481349
          -0.87095224857 0.28298944235 0.40169540048 -0.92195445299 0.29956108332 0.2454854548
          -0.94780820608 0.30796146393 0.082579307258 -0.94780820608 0.30796146393 -0.082579389215
          -0.92195445299 0.29956108332 -0.2454855293 -0.87095218897 0.28298944235 -0.40169548988
          -0.79619264603 0.25869858265 -0.5469481945 -0.69971501827 0.22735112906 -0.67728161812
          -0.58415096998 0.1898021102 -0.78914052248 -0.452652812 0.14707577229 -0.87947380543
          -0.30880749226 0.10033760965 -0.94581729174 -0.1565386802 0.050862487406 -0.98636132479
          -0.16459459066 -1.4389317293e-008 0.98636132479 -0.32469949126 -2.8386130779e-008 0.94581723213
          -0.47594740987 -4.1608643642e-008 0.87947374582 -0.61421275139 -5.36961835e-008 0.78914052248
          -0.73572391272 -6.4319031878e-008 0.67728155851 -0.83716648817 -7.3187422345e-008 0.5469481349
          -0.91577333212 -8.0059450625e-008 0.40169540048 -0.96940028667 -8.4747668438e-008 0.2454854548
          -0.99658447504 -8.71241852e-008 0.082579307258 -0.99658447504 -8.71241852e-008 -0.082579389215
          -0.96940022707 -8.4747668438e-008 -0.2454855293 -0.91577333212 -8.0059450625e-008 -0.40169548988
          -0.83716642857 -7.3187415239e-008 -0.5469481945 -0.73572385311 -6.4319024773e-008 -0.67728161812
          -0.61421263218 -5.3696176394e-008 -0.78914052248 -0.47594732046 -4.1608640089e-008 -0.87947380543
          -0.32469940186 -2.8386123674e-008 -0.94581729174 -0.16459450126 -1.43893093e-008 -0.98636132479
          -0.1565387547 -0.050862543285 0.98636132479 -0.30880755186 -0.10033768415 0.94581723213
          -0.45265287161 -0.14707587659 0.87947374582 -0.58415096998 -0.1898022294 0.78914052248
          -0.69971501827 -0.22735126317 0.67728155851 -0.79619264603 -0.25869876146 0.5469481349
          -0.87095218897 -0.28298962116 0.40169540048 -0.92195439339 -0.29956126213 0.2454854548
          -0.94780814648 -0.30796164274 0.082579307258 -0.94780814648 -0.30796164274 -0.082579389215
          -0.92195439339 -0.29956123233 -0.2454855293 -0.87095212936 -0.28298959136 -0.40169548988
          -0.79619258642 -0.25869873166 -0.5469481945 -0.69971495867 -0.22735124826 -0.67728161812
          -0.58415091038 -0.1898021996 -0.78914052248 -0.4526527822 -0.14707586169 -0.87947380543
          -0.30880746245 -0.1003376618 -0.94581729174 -0.1565386802 -0.050862517208 -0.98636132479
          -0.13315981627 -0.09674628824 0.98636132479 -0.26268738508 -0.19085359573 0.94581723213
          -0.38504952192 -0.27975490689 0.87947374582 -0.49690848589 -0.361025244 0.78914052248
          -0.59521311522 -0.43244773149 0.67728155851 -0.67728185654 -0.49207419157 0.5469481349
          -0.74087613821 -0.53827816248 0.40169540048 -0.78426122665 -0.5697992444 0.2454854548
          -0.80625373125 -0.58577775955 0.082579307258 -0.80625373125 -0.58577775955 -0.082579389215
          -0.78426122665 -0.5697992444 -0.2454855293 -0.74087613821 -0.53827810287 -0.40169548988
          -0.67728185654 -0.49207416177 -0.5469481945 -0.59521305561 -0.43244770169 -0.67728161812
          -0.49690842628 -0.36102518439 -0.78914052248 -0.38504946232 -0.27975484729 -0.87947380543
          -0.26268729568 -0.19085353613 -0.94581729174 -0.13315974176 -0.096746236086 -0.98636132479
          -0.096746258438 -0.13315983117 0.98636132479 -0.19085353613 -0.26268741488 0.94581723213
          -0.27975481749 -0.38504958153 0.87947374582 -0.36102512479 -0.4969085753 0.78914052248
          -0.43244761229 -0.59521323442 0.67728155851 -0.49207404256 -0.67728197575 0.5469481349
          -0.53827798367 -0.74087625742 0.40169540048 -0.56979912519 -0.78426134586 0.2454854548
          -0.58577758074 -0.80625385046 0.082579307258 -0.58577758074 -0.80625385046 -0.082579389215
          -0.56979906559 -0.78426134586 -0.2454855293 -0.53827798367 -0.74087619781 -0.40169548988
          -0.49207401276 -0.67728191614 -0.5469481945 -0.43244758248 -0.59521317482 -0.67728161812
          -0.36102509499 -0.49690851569 -0.78914052248 -0.27975478768 -0.38504952192 -0.87947380543
          -0.19085349143 -0.26268735528 -0.94581729174 -0.096746206284 -0.13315977156 -0.98636132479
          -0.050862506032 -0.1565387696 0.98636132479 -0.1003376171 -0.30880755186 0.94581723213
          -0.14707578719 -0.45265290141 0.87947374582 -0.18980209529 -0.58415102959 0.78914052248
          -0.22735111415 -0.69971507788 0.67728155851 -0.25869858265 -0.79619270563 0.5469481349
          -0.28298941255 -0.87095224857 0.40169540048 -0.29956105351 -0.9219545126 0.2454854548
          -0.30796143413 -0.94780820608 0.082579307258 -0.30796143413 -0.94780820608 -0.082579389215
          -0.29956105351 -0.92195445299 -0.2454855293 -0.28298941255 -0.87095218897 -0.40169548988
          -0.25869855285 -0.79619264603 -0.5469481945 -0.22735109925 -0.69971501827 -0.67728161812
          -0.18980208039 -0.58415096998 -0.78914052248 -0.14707575738 -0.452652812 -0.87947380543
          -0.10033759475 -0.30880749226 -0.94581729174 -0.050862479955 -0.1565386802 -0.98636132479
          2.1583975496e-008 -0.16459459066 0.98636132479 4.2579195281e-008 -0.32469949126 0.94581723213
          6.2412965462e-008 -0.47594740987 0.87947374582 8.0544275249e-008 -0.61421275139 0.78914052248
          9.6478544265e-008 -0.73572391272 0.67728155851 1.0978113352e-007 -0.83716648817 0.5469481349
          1.2008918304e-007 -0.91577333212 0.40169540048 1.2712149555e-007 -0.96940028667 0.2454854548
          1.3068627425e-007 -0.99658447504 0.082579307258 1.3068627425e-007 -0.99658447504 -0.082579389215
          1.2712149555e-007 -0.96940022707 -0.2454855293 1.2008916883e-007 -0.91577333212 -0.40169548988
          1.0978112641e-007 -0.83716642857 -0.5469481945 9.6478537159e-008 -0.73572385311 -0.67728161812
          8.0544268144e-008 -0.61421263218 -0.78914052248 6.2412958357e-008 -0.47594732046 -0.87947380543
          4.2579184623e-008 -0.32469940186 -0.94581729174 2.1583964838e-008 -0.16459450126 -0.98636132479
          0.050862550735 -0.1565387547 0.98636132479 0.10033769906 -0.30880755186 0.94581723213
          0.1470759064 -0.45265287161 0.87947374582 0.18980225921 -0.58415096998 0.78914052248
          0.22735129297 -0.69971501827 0.67728155851 0.25869879127 -0.79619258642 0.5469481349
          0.28298965096 -0.87095218897 0.40169540048 0.29956129193 -0.92195439339 0.2454854548
          0.30796167254 -0.94780814648 0.082579307258 0.30796167254 -0.94780814648 -0.082579389215
          0.29956129193 -0.92195439339 -0.2454855293 0.28298962116 -0.87095212936 -0.40169548988
          0.25869876146 -0.79619258642 -0.5469481945 0.22735127807 -0.69971495867 -0.67728161812
          0.1898022294 -0.58415091038 -0.78914052248 0.14707587659 -0.4526527822 -0.87947380543
          0.1003376767 -0.30880746245 -0.94581729174 0.050862520933 -0.1565386802 -0.98636132479
          0.096746295691 -0.13315981627 0.98636132479 0.19085361063 -0.26268735528 0.94581723213
          0.2797549367 -0.38504949212 0.87947374582 0.361025244 -0.49690848589 0.78914052248
          0.4324477613 -0.59521311522 0.67728155851 0.49207422137 -0.67728185654 0.5469481349
          0.53827816248 -0.74087613821 0.40169540048 0.56979930401 -0.78426122665 0.2454854548
          0.58577781916 -0.80625373125 0.082579307258 0.58577775955 -0.80625367165 -0.082579389215
          0.56979930401 -0.78426116705 -0.2454855293 0.53827816248 -0.74087607861 -0.40169548988
          0.49207419157 -0.67728179693 -0.5469481945 0.43244773149 -0.59521305561 -0.67728161812
          0.3610252142 -0.49690842628 -0.78914052248 0.27975487709 -0.38504943252 -0.87947380543
          0.19085355103 -0.26268729568 -0.94581729174 0.096746243536 -0.13315974176 -0.98636132479
          0.13315984607 -0.096746250987 0.98636132479 0.26268741488 -0.19085352123 0.94581723213
          0.38504958153 -0.27975481749 0.87947374582 0.4969086051 -0.36102509499 0.78914052248
          0.59521323442 -0.43244758248 0.67728155851 0.67728197575 -0.49207401276 0.5469481349
          0.74087625742 -0.53827792406 0.40169540048 0.78426140547 -0.56979906559 0.2454854548
          0.80625391006 -0.58577752113 0.082579307258 0.80625391006 -0.58577752113 -0.082579389215
          0.78426134586 -0.56979906559 -0.2454855293 0.74087625742 -0.53827792406 -0.40169548988
          0.67728197575 -0.49207398295 -0.5469481945 0.59521317482 -0.43244755268 -0.67728161812
          0.49690854549 -0.36102506518 -0.78914052248 0.38504952192 -0.27975475788 -0.87947380543
          0.26268735528 -0.19085347652 -0.94581729174 0.13315977156 -0.096746206284 -0.98636132479
          0.1565387696 -0.050862502307 0.98636132479 0.30880758166 -0.1003376022 0.94581723213
          0.45265290141 -0.14707575738 0.87947374582 0.58415102959 -0.18980208039 0.78914052248
          0.69971507788 -0.22735108435 0.67728155851 0.79619270563 -0.25869855285 0.5469481349
          0.87095224857 -0.28298938274 0.40169540048 0.9219545126 -0.29956099391 0.2454854548
          0.94780820608 -0.30796137452 0.082579307258 0.94780820608 -0.30796137452 -0.082579389215
          0.92195445299 -0.29956099391 -0.2454855293 0.87095218897 -0.28298938274 -0.40169548988
          0.79619264603 -0.25869852304 -0.5469481945 0.69971501827 -0.22735105455 -0.67728161812
          0.58415096998 -0.18980205059 -0.78914052248 0.45265284181 -0.14707574248 -0.87947380543
          0.30880749226 -0.10033757985 -0.94581729174 0.1565386951 -0.050862472504 -0.98636132479
        </DataArray>
      </PointData>
      <CellData>
      </CellData>
      <Points>
        <DataArray type="Float32" Name="Array 112CDCA0" NumberOfComponents="3" format="ascii" RangeMin="0.49999998044" RangeMax="0.50000001864">
          0 0 0.5 0 0 -0.5
          0.082297295332 0 0.49318066239 0.16234974563 0 0.47290861607
          0.23797370493 0 0.43973687291 0.30710637569 0 0.39457026124
          0.36786195636 0 0.33864077926 0.41858324409 0 0.27347406745
          0.45788666606 0 0.20084770024 0.48470014334 0 0.1227427274
          0.49829223752 0 0.041289653629 0.49829223752 0 -0.041289694607
          0.48470011353 0 -0.12274276465 0.45788666606 0 -0.20084774494
          0.41858321428 0 -0.27347409725 0.36786192656 0 -0.33864080906
          0.30710631609 0 -0.39457026124 0.23797366023 0 -0.43973690271
          0.16234970093 0 -0.47290864587 0.082297250628 0 -0.49318066239
          0.078269377351 0.025431264192 0.49318066239 0.15440377593 0.050168830901 0.47290861607
          0.2263264358 0.073537923396 0.43973687291 0.29207551479 0.0949010849 0.39457026124
          0.34985750914 0.11367560178 0.33864077926 0.39809632301 0.12934933603 0.27347406745
          0.43547609448 0.14149476588 0.20084770024 0.4609772265 0.14978058636 0.1227427274
          0.47390410304 0.15398077667 0.041289653629 0.47390407324 0.15398077667 -0.041289694607
          0.4609772265 0.14978058636 -0.12274276465 0.43547609448 0.14149476588 -0.20084774494
          0.39809629321 0.12934933603 -0.27347409725 0.34985747933 0.11367559433 -0.33864080906
          0.29207548499 0.094901077449 -0.39457026124 0.226326406 0.073537908494 -0.43973690271
          0.15440373123 0.050168816 -0.47290864587 0.078269340098 0.025431251153 -0.49318066239
          0.066579908133 0.048373140395 0.49318066239 0.13134369254 0.095426782966 0.47290861607
          0.19252476096 0.13987743855 0.43973687291 0.24845425785 0.1805125922 0.39457026124
          0.29760658741 0.21622383595 0.33864077926 0.33864095807 0.24603706598 0.27347406745
          0.37043809891 0.26913905144 0.20084770024 0.39213064313 0.2848995924 0.1227427274
          0.40312689543 0.29288884997 0.041289653629 0.40312689543 0.29288884997 -0.041289694607
          0.39213064313 0.2848995924 -0.12274276465 0.37043806911 0.26913902164 -0.20084774494
          0.33864092827 0.24603705108 -0.27347409725 0.29760655761 0.21622382104 -0.33864080906
          0.24845424294 0.1805125773 -0.39457026124 0.19252473116 0.13987740874 -0.43973690271
          0.13134366274 0.095426760614 -0.47290864587 0.06657987833 0.048373114318 -0.49318066239
          0.048373136669 0.066579915583 0.49318066239 0.095426775515 0.13134370744 0.47290861607
          0.13987742364 0.19252477586 0.43973687291 0.1805125922 0.24845427275 0.39457026124
          0.21622383595 0.29760658741 0.33864077926 0.24603705108 0.33864095807 0.27347406745
          0.26913902164 0.37043809891 0.20084770024 0.2848995924 0.39213064313 0.1227427274
          0.29288882017 0.40312689543 0.041289653629 0.29288882017 0.40312689543 -0.041289694607
          0.2848995626 0.39213064313 -0.12274276465 0.26913902164 0.37043809891 -0.20084774494
          0.24603703618 0.33864095807 -0.27347409725 0.21622380614 0.29760655761 -0.33864080906
          0.18051256239 0.24845424294 -0.39457026124 0.13987740874 0.19252474606 -0.43973690271
          0.095426753163 0.13134366274 -0.47290864587 0.048373110592 0.06657987833 -0.49318066239
          0.025431260467 0.078269384801 0.49318066239 0.050168823451 0.15440377593 0.47290861607
          0.073537908494 0.2263264358 0.43973687291 0.094901077449 0.29207551479 0.39457026124
          0.11367558688 0.34985750914 0.33864077926 0.12934932113 0.39809632301 0.27347406745
          0.14149475098 0.43547609448 0.20084770024 0.14978055656 0.4609772265 0.1227427274
          0.15398076177 0.47390410304 0.041289653629 0.15398076177 0.47390410304 -0.041289694607
          0.14978055656 0.4609772265 -0.12274276465 0.14149473608 0.43547609448 -0.20084774494
          0.12934932113 0.39809629321 -0.27347409725 0.11367557943 0.34985747933 -0.33864080906
          0.094901062548 0.29207548499 -0.39457026124 0.073537901044 0.226326406 -0.43973690271
          0.05016880855 0.15440374613 -0.47290864587 0.025431247428 0.078269340098 -0.49318066239
          -3.5973293233e-009 0.082297295332 0.49318066239 -7.0965326948e-009 0.16234974563 0.47290861607
          -1.040216091e-008 0.23797370493 0.43973687291 -1.3424045875e-008 0.30710637569 0.39457026124
          -1.607975797e-008 0.36786195636 0.33864077926 -1.8296855586e-008 0.41858324409 0.27347406745
          -2.0014862656e-008 0.45788666606 0.20084770024 -2.118691711e-008 0.48470014334 0.1227427274
          -2.17810463e-008 0.49829223752 0.041289653629 -2.17810463e-008 0.49829223752 -0.041289694607
          -2.118691711e-008 0.48470011353 -0.12274276465 -2.0014862656e-008 0.45788666606 -0.20084774494
          -1.829685381e-008 0.41858321428 -0.27347409725 -1.6079756193e-008 0.36786192656 -0.33864080906
          -1.3424044099e-008 0.30710631609 -0.39457026124 -1.0402160022e-008 0.23797366023 -0.43973690271
          -7.0965309185e-009 0.16234970093 -0.47290864587 -3.5973273249e-009 0.082297250628 -0.49318066239
          -0.025431267917 0.078269377351 0.49318066239 -0.050168834627 0.15440377593 0.47290861607
          -0.073537930846 0.2263264358 0.43973687291 -0.094901099801 0.29207551479 0.39457026124
          -0.11367561668 0.34985750914 0.33864077926 -0.12934935093 0.39809632301 0.27347406745
          -0.14149478078 0.43547609448 0.20084770024 -0.14978060126 0.4609772265 0.1227427274
          -0.15398079157 0.47390407324 0.041289653629 -0.15398079157 0.47390407324 -0.041289694607
          -0.14978060126 0.46097719669 -0.12274276465 -0.14149478078 0.43547606468 -0.20084774494
          -0.12934935093 0.39809629321 -0.27347409725 -0.11367560923 0.34985747933 -0.33864080906
          -0.09490109235 0.29207548499 -0.39457026124 -0.073537915945 0.226326406 -0.43973690271
          -0.050168823451 0.15440373123 -0.47290864587 -0.025431254879 0.078269340098 -0.49318066239
          -0.048373140395 0.066579908133 0.49318066239 -0.095426790416 0.13134369254 0.47290861607
          -0.13987743855 0.19252476096 0.43973687291 -0.1805126071 0.24845425785 0.39457026124
          -0.21622385085 0.29760655761 0.33864077926 -0.24603708088 0.33864095807 0.27347406745
          -0.26913905144 0.37043806911 0.20084770024 -0.2848996222 0.39213064313 0.1227427274
          -0.29288884997 0.40312686563 0.041289653629 -0.29288884997 0.40312686563 -0.041289694607
          -0.2848996222 0.39213061333 -0.12274276465 -0.26913905144 0.37043806911 -0.20084774494
          -0.24603706598 0.33864092827 -0.27347409725 -0.21622383595 0.29760652781 -0.33864080906
          -0.1805125922 0.24845422804 -0.39457026124 -0.13987742364 0.19252473116 -0.43973690271
          -0.095426768064 0.13134366274 -0.47290864587 -0.048373118043 0.06657987088 -0.49318066239
          -0.066579915583 0.048373132944 0.49318066239 -0.13134370744 0.095426775515 0.47290861607
          -0.19252477586 0.13987742364 0.43973687291 -0.24845427275 0.1805125773 0.39457026124
          -0.29760658741 0.21622382104 0.33864077926 -0.33864098787 0.24603703618 0.27347406745
          -0.37043812871 0.26913899183 0.20084770024 -0.39213067293 0.2848995626 0.1227427274
          -0.40312692523 0.29288882017 0.041289653629 -0.40312692523 0.29288879037 -0.041289694607
          -0.39213067293 0.2848995626 -0.12274276465 -0.37043809891 0.26913899183 -0.20084774494
          -0.33864095807 0.24603702128 -0.27347409725 -0.29760655761 0.21622379124 -0.33864080906
          -0.24845425785 0.18051254749 -0.39457026124 -0.19252474606 0.13987739384 -0.43973690271
          -0.13134367764 0.095426745713 -0.47290864587 -0.06657987833 0.048373106867 -0.49318066239
          -0.078269384801 0.025431256741 0.49318066239 -0.15440377593 0.050168816 0.47290861607
          -0.22632645071 0.073537901044 0.43973687291 -0.29207551479 0.094901062548 0.39457026124
          -0.34985753894 0.11367557198 0.33864077926 -0.39809632301 0.12934930623 0.27347406745
          -0.43547612429 0.14149472117 0.20084770024 -0.4609772265 0.14978054166 0.1227427274
          -0.47390410304 0.15398073196 0.041289653629 -0.47390410304 0.15398073196 -0.041289694607
          -0.4609772265 0.14978054166 -0.12274276465 -0.43547609448 0.14149472117 -0.20084774494
          -0.39809632301 0.12934929132 -0.27347409725 -0.34985750914 0.11367556453 -0.33864080906
          -0.29207548499 0.094901055098 -0.39457026124 -0.226326406 0.073537886143 -0.43973690271
          -0.15440374613 0.050168804824 -0.47290864587 -0.078269340098 0.025431243703 -0.49318066239
          -0.082297295332 -7.1946586466e-009 0.49318066239 -0.16234974563 -1.419306539e-008 0.47290861607
          -0.23797370493 -2.0804321821e-008 0.43973687291 -0.30710637569 -2.684809175e-008 0.39457026124
          -0.36786195636 -3.2159515939e-008 0.33864077926 -0.41858324409 -3.6593711172e-008 0.27347406745
          -0.45788666606 -4.0029725312e-008 0.20084770024 -0.48470014334 -4.2373834219e-008 0.1227427274
          -0.49829223752 -4.35620926e-008 0.041289653629 -0.49829223752 -4.35620926e-008 -0.041289694607
          -0.48470011353 -4.2373834219e-008 -0.12274276465 -0.45788666606 -4.0029725312e-008 -0.20084774494
          -0.41858321428 -3.659370762e-008 -0.27347409725 -0.36786192656 -3.2159512386e-008 -0.33864080906
          -0.30710631609 -2.6848088197e-008 -0.39457026124 -0.23797366023 -2.0804320044e-008 -0.43973690271
          -0.16234970093 -1.4193061837e-008 -0.47290864587 -0.082297250628 -7.1946546498e-009 -0.49318066239
          -0.078269377351 -0.025431271642 0.49318066239 -0.15440377593 -0.050168842077 0.47290861607
          -0.2263264358 -0.073537938297 0.43973687291 -0.29207548499 -0.094901114702 0.39457026124
          -0.34985750914 -0.11367563158 0.33864077926 -0.39809632301 -0.12934938073 0.27347406745
          -0.43547609448 -0.14149481058 0.20084770024 -0.46097719669 -0.14978063107 0.1227427274
          -0.47390407324 -0.15398082137 0.041289653629 -0.47390407324 -0.15398082137 -0.041289694607
          -0.46097719669 -0.14978061616 -0.12274276465 -0.43547606468 -0.14149479568 -0.20084774494
          -0.39809629321 -0.12934936583 -0.27347409725 -0.34985747933 -0.11367562413 -0.33864080906
          -0.29207545519 -0.094901099801 -0.39457026124 -0.2263263911 -0.073537930846 -0.43973690271
          -0.15440373123 -0.050168830901 -0.47290864587 -0.078269340098 -0.025431258604 -0.49318066239
          -0.066579908133 -0.04837314412 0.49318066239 -0.13134369254 -0.095426797867 0.47290861607
          -0.19252476096 -0.13987745345 0.43973687291 -0.24845424294 -0.180512622 0.39457026124
          -0.29760655761 -0.21622386575 0.33864077926 -0.33864092827 -0.24603709579 0.27347406745
          -0.37043806911 -0.26913908124 0.20084770024 -0.39213061333 -0.2848996222 0.1227427274
          -0.40312686563 -0.29288887978 0.041289653629 -0.40312686563 -0.29288887978 -0.041289694607
          -0.39213061333 -0.2848996222 -0.12274276465 -0.37043806911 -0.26913905144 -0.20084774494
          -0.33864092827 -0.24603708088 -0.27347409725 -0.29760652781 -0.21622385085 -0.33864080906
          -0.24845421314 -0.1805125922 -0.39457026124 -0.19252473116 -0.13987742364 -0.43973690271
          -0.13134364784 -0.095426768064 -0.47290864587 -0.06657987088 -0.048373118043 -0.49318066239
          -0.048373129219 -0.066579915583 0.49318066239 -0.095426768064 -0.13134370744 0.47290861607
          -0.13987740874 -0.19252479076 0.43973687291 -0.18051256239 -0.24845428765 0.39457026124
          -0.21622380614 -0.29760661721 0.33864077926 -0.24603702128 -0.33864098787 0.27347406745
          -0.26913899183 -0.37043812871 0.20084770024 -0.2848995626 -0.39213067293 0.1227427274
          -0.29288879037 -0.40312692523 0.041289653629 -0.29288879037 -0.40312692523 -0.041289694607
          -0.28489953279 -0.39213067293 -0.12274276465 -0.26913899183 -0.37043809891 -0.20084774494