<?xml version="1.0"?>
<VTKFile type="PolyData" version="0.1" byte_order="LittleEndian" compressor="vtkZLibDataCompressor">
  <PolyData>
    <Piece NumberOfPoints="768" NumberOfVerts="0" NumberOfLines="0" NumberOfStrips="160" NumberOfPolys="0">
      <PointData Normals="Normals" TCoords="TextureCoords">
        <DataArray type="Float32" Name="Normals" NumberOfComponents="3" format="ascii" RangeMin="0.99999996759" RangeMax="1.0000000259">
          0.0026178907137 -0.0031415000558 0.99999165535 0.25881770253 -0.0031415000558 0.96592110395
          0.4999974668 -0.0031415000558 0.86602115631 0.70524960756 -0.0031415000558 0.70895212889
          0.70895200968 -0.0031415000558 0.70524972677 0.86602109671 -0.0031415000558 0.49999758601
          0.96592104435 -0.0031415000558 0.25881782174 0.99999165535 -0.0031415000558 0.0026180217974
          0.99999165535 -0.0031415000558 -0.0026179342531 0.96592104435 -0.0031415000558 -0.25881773233
          0.86602115631 -0.0031415000558 -0.4999974966 0.70895206928 -0.0031415000558 -0.70524966717
          0.70524966717 -0.0031415000558 -0.70895206928 0.49999755621 -0.0031415000558 -0.86602109671
          0.25881776214 -0.0031415000558 -0.96592104435 0.0026179780252 -0.0031415000558 -0.99999165535
          -0.0026179780252 -0.0031415000558 -0.99999165535 -0.25881776214 -0.0031415000558 -0.96592104435
          -0.49999755621 -0.0031415000558 -0.86602109671 -0.70524966717 -0.0031415000558 -0.70895206928
          -0.70895206928 -0.0031415000558 -0.70524966717 -0.86602115631 -0.0031415000558 -0.4999974966
          -0.96592104435 -0.0031415000558 -0.25881773233 -0.99999165535 -0.0031415000558 -0.0026179342531
          -0.99999165535 -0.0031415000558 0.0026180217974 -0.96592104435 -0.0031415000558 0.25881782174
          -0.86602109671 -0.0031415000558 0.49999758601 -0.70895200968 -0.0031415000558 0.70524972677
          -0.70524960756 -0.0031415000558 0.70895212889 -0.4999974668 -0.0031415000558 0.86602115631
          -0.25881770253 -0.0031415000558 0.96592110395 -0.0026178907137 -0.0031415000558 0.99999165535
          0.0024897742551 -0.30901691318 0.95105326176 0.2461514771 -0.30901691318 0.91865009069
          0.4755282104 -0.30901691318 0.82363915443 0.67073559761 -0.30901691318 0.67425686121
          0.67425680161 -0.30901691318 0.67073565722 0.82363909483 -0.30901691318 0.47552832961
          0.91865009069 -0.30901691318 0.24615159631 0.95105326176 -0.30901691318 0.0024898990523
          0.95105326176 -0.30901691318 -0.0024898159318 0.91865009069 -0.30901691318 -0.2461515069
          0.82363915443 -0.30901691318 -0.4755282402 0.67425686121 -0.30901691318 -0.67073559761
          0.67073565722 -0.30901691318 -0.67425680161 0.47552827001 -0.30901691318 -0.82363909483
          0.2461515516 -0.30901691318 -0.91865009069 0.0024898573756 -0.30901691318 -0.95105326176
          -0.0024898573756 -0.30901691318 -0.95105326176 -0.2461515516 -0.30901691318 -0.91865009069
          -0.47552827001 -0.30901691318 -0.82363909483 -0.67073565722 -0.30901691318 -0.67425680161
          -0.67425686121 -0.30901691318 -0.67073559761 -0.82363915443 -0.30901691318 -0.4755282402
          -0.91865009069 -0.30901691318 -0.2461515069 -0.95105326176 -0.30901691318 -0.0024898159318
          -0.95105326176 -0.30901691318 0.0024898990523 -0.91865009069 -0.30901691318 0.24615159631
          -0.82363909483 -0.30901691318 0.47552832961 -0.67425680161 -0.30901691318 0.67073565722
          -0.67073559761 -0.30901691318 0.67425686121 -0.4755282104 -0.30901691318 0.82363915443
          -0.2461514771 -0.30901691318 0.91865009069 -0.0024897742551 -0.30901691318 0.95105326176
          0.0021179285832 -0.58778518438 0.80901426077 0.20938895643 -0.58778518438 0.78145045042
          0.40450847149 -0.58778518438 0.70062935352 0.57056176662 -0.58778518438 0.57355713844
          0.57355707884 -0.58778518438 0.57056188583 0.70062929392 -0.58778518438 0.4045085609
          0.78145045042 -0.58778518438 0.20938906074 0.80901426077 -0.58778518438 0.0021180347539
          0.80901426077 -0.58778518438 -0.0021179639734 0.78145045042 -0.58778518438 -0.20938898623
          0.70062929392 -0.58778518438 -0.40450850129 0.57355713844 -0.58778518438 -0.57056182623
          0.57056182623 -0.58778518438 -0.57355713844 0.40450853109 -0.58778518438 -0.70062929392
          0.20938901603 -0.58778518438 -0.78145045042 0.0021179993637 -0.58778518438 -0.80901426077
          -0.0021179993637 -0.58778518438 -0.80901426077 -0.20938901603 -0.58778518438 -0.78145045042
          -0.40450853109 -0.58778518438 -0.70062929392 -0.57056182623 -0.58778518438 -0.57355713844
          -0.57355713844 -0.58778518438 -0.57056182623 -0.70062929392 -0.58778518438 -0.40450850129
          -0.78145045042 -0.58778518438 -0.20938898623 -0.80901426077 -0.58778518438 -0.0021179639734
          -0.80901426077 -0.58778518438 0.0021180347539 -0.78145045042 -0.58778518438 0.20938906074
          -0.70062929392 -0.58778518438 0.4045085609 -0.57355707884 -0.58778518438 0.57056188583
          -0.57056176662 -0.58778518438 0.57355713844 -0.40450847149 -0.58778518438 0.70062935352
          -0.20938895643 -0.58778518438 0.78145045042 -0.0021179285832 -0.58778518438 0.80901426077
          0.0015387652675 -0.80901694298 0.58778327703 0.15212997794 -0.80901694298 0.56775701046
          0.29389262199 -0.80901694298 0.50903701782 0.41453740001 -0.80901694298 0.4167136848
          0.41671362519 -0.80901694298 0.41453745961 0.50903695822 -0.80901694298 0.2938926816
          0.56775701046 -0.80901694298 0.15213005245 0.58778327703 -0.80901694298 0.0015388423344
          0.58778327703 -0.80901694298 -0.0015387908788 0.56775701046 -0.80901694298 -0.15213000774
          0.50903701782 -0.80901694298 -0.29389262199 0.41671365499 -0.80901694298 -0.41453742981
          0.41453745961 -0.80901694298 -0.41671365499 0.2938926518 -0.80901694298 -0.50903701782
          0.15213003755 -0.80901694298 -0.56775701046 0.0015388166066 -0.80901694298 -0.58778327703
          -0.0015388166066 -0.80901694298 -0.58778327703 -0.15213003755 -0.80901694298 -0.56775701046
          -0.2938926518 -0.80901694298 -0.50903701782 -0.41453745961 -0.80901694298 -0.41671365499
          -0.41671365499 -0.80901694298 -0.41453742981 -0.50903701782 -0.80901694298 -0.29389262199
          -0.56775701046 -0.80901694298 -0.15213000774 -0.58778327703 -0.80901694298 -0.0015387908788
          -0.58778327703 -0.80901694298 0.0015388423344 -0.56775701046 -0.80901694298 0.15213005245
          -0.50903695822 -0.80901694298 0.2938926816 -0.41671362519 -0.80901694298 0.41453745961
          -0.41453740001 -0.80901694298 0.4167136848 -0.29389262199 -0.80901694298 0.50903701782
          -0.15212997794 -0.80901694298 0.56775701046 -0.0015387652675 -0.80901694298 0.58778327703
          0.00080897682346 -0.95105648041 0.3090159893 0.079979471862 -0.95105648041 0.29848754406
          0.15450850129 -0.95105648041 0.2676166296 0.21793523431 -0.95105648041 0.21907936037
          0.21907933056 -0.95105648041 0.21793526411 0.2676165998 -0.95105648041 0.15450853109
          0.29848754406 -0.95105648041 0.079979509115 0.3090159893 -0.95105648041 0.000809017336
          0.3090159893 -0.95105648041 -0.00080899032764 0.29848754406 -0.95105648041 -0.079979486763
          0.2676166296 -0.95105648041 -0.15450851619 0.21907936037 -0.95105648041 -0.21793524921
          0.21793524921 -0.95105648041 -0.21907934546 0.15450853109 -0.95105648041 -0.2676165998
          0.079979501665 -0.95105648041 -0.29848754406 0.00080900383182 -0.95105648041 -0.3090159893
          -0.00080900383182 -0.95105648041 -0.3090159893 -0.079979501665 -0.95105648041 -0.29848754406
          -0.15450853109 -0.95105648041 -0.2676165998 -0.21793524921 -0.95105648041 -0.21907934546
          -0.21907936037 -0.95105648041 -0.21793524921 -0.2676166296 -0.95105648041 -0.15450851619
          -0.29848754406 -0.95105648041 -0.079979486763 -0.3090159893 -0.95105648041 -0.00080899032764
          -0.3090159893 -0.95105648041 0.000809017336 -0.29848754406 -0.95105648041 0.079979509115
          -0.2676165998 -0.95105648041 0.15450853109 -0.21907933056 -0.95105648041 0.21793526411
          -0.21793523431 -0.95105648041 0.21907936037 -0.15450850129 -0.95105648041 0.2676166296
          -0.079979471862 -0.95105648041 0.29848754406 -0.00080897682346 -0.95105648041 0.3090159893
          8.2244878286e-006 -0.99999505281 0.0031416204292 0.00081311375834 -0.99999505281 0.0030345828272
          0.0015708154533 -0.99999505281 0.0027207327075 0.002215645276 -0.99999505281 0.0022272770293
          0.0022272767965 -0.99999505281 0.0022156455088 0.0027207324747 -0.99999505281 0.0015708158026
          0.0030345828272 -0.99999505281 0.00081311416579 0.0031416204292 -0.99999505281 8.2248998297e-006
          0.0031416204292 -0.99999505281 -8.2246251623e-006 0.0030345828272 -0.99999505281 -0.00081311387476
          0.0027207324747 -0.99999505281 -0.0015708155697 0.0022272770293 -0.99999505281 -0.002215645276
          0.0022156455088 -0.99999505281 -0.0022272767965 0.0015708156861 -0.99999505281 -0.0027207324747
          0.00081311404938 -0.99999505281 -0.0030345828272 8.224762496e-006 -0.99999505281 -0.0031416204292
          -8.224762496e-006 -0.99999505281 -0.0031416204292 -0.00081311404938 -0.99999505281 -0.0030345828272
          -0.0015708156861 -0.99999505281 -0.0027207324747 -0.0022156455088 -0.99999505281 -0.0022272767965
          -0.0022272770293 -0.99999505281 -0.002215645276 -0.0027207324747 -0.99999505281 -0.0015708155697
          -0.0030345828272 -0.99999505281 -0.00081311387476 -0.0031416204292 -0.99999505281 -8.2246251623e-006
          -0.0031416204292 -0.99999505281 8.2248998297e-006 -0.0030345828272 -0.99999505281 0.00081311416579
          -0.0027207324747 -0.99999505281 0.0015708158026 -0.0022272767965 -0.99999505281 0.0022156455088
          -0.002215645276 -0.99999505281 0.0022272770293 -0.0015708154533 -0.99999505281 0.0027207327075
          -0.00081311375834 -0.99999505281 0.0030345828272 -8.2244878286e-006 -0.99999505281 0.0031416204292
          -8.2242586359e-006 -0.99999505281 -0.0031415331177 -0.00081309111556 -0.99999505281 -0.0030344983097
          -0.0015707716811 -0.99999505281 -0.0027206568047 -0.0022155835759 -0.99999505281 -0.0022272150964
          -0.0022272148635 -0.99999505281 -0.0022155838087 -0.0027206568047 -0.99999505281 -0.0015707721468
          -0.0030344983097 -0.99999505281 -0.00081309152301 -0.0031415331177 -0.99999505281 -8.224670637e-006
          -0.0031415331177 -0.99999505281 8.2243959696e-006 -0.0030344983097 -0.99999505281 0.00081309129018
          -0.0027206568047 -0.99999505281 0.0015707717976 -0.0022272150964 -0.99999505281 0.0022155835759
          -0.0022155838087 -0.99999505281 0.0022272148635 -0.001570771914 -0.99999505281 0.0027206568047
          -0.0008130914066 -0.99999505281 0.0030344983097 -8.2245333033e-006 -0.99999505281 0.0031415331177
          8.2245333033e-006 -0.99999505281 0.0031415331177 0.0008130914066 -0.99999505281 0.0030344983097
          0.001570771914 -0.99999505281 0.0027206568047 0.0022155838087 -0.99999505281 0.0022272148635
          0.0022272150964 -0.99999505281 0.0022155835759 0.0027206568047 -0.99999505281 0.0015707717976
          0.0030344983097 -0.99999505281 0.00081309129018 0.0031415331177 -0.99999505281 8.2243959696e-006
          0.0031415331177 -0.99999505281 -8.224670637e-006 0.0030344983097 -0.99999505281 -0.00081309152301
          0.0027206568047 -0.99999505281 -0.0015707721468 0.0022272148635 -0.99999505281 -0.0022155838087
          0.0022155835759 -0.99999505281 -0.0022272150964 0.0015707716811 -0.99999505281 -0.0027206568047
          0.00081309111556 -0.99999505281 -0.0030344983097 8.2242586359e-006 -0.99999505281 -0.0031415331177
          -0.00080897659063 -0.95105654001 -0.3090158999 -0.079979449511 -0.95105654001 -0.29848748446
          -0.15450845659 -0.95105654001 -0.26761654019 -0.2179351747 -0.95105654001 -0.21907930076
          -0.21907927096 -0.95105654001 -0.21793520451 -0.26761654019 -0.95105654001 -0.15450850129
          -0.29848745465 -0.95105654001 -0.079979486763 -0.3090158999 -0.95105654001 -0.00080901710317
          -0.3090158999 -0.95105654001 0.00080899009481 -0.29848745465 -0.95105654001 0.079979464412
          -0.26761654019 -0.95105654001 0.15450847149 -0.21907930076 -0.95105654001 0.2179351896
          -0.2179351896 -0.95105654001 0.21907928586 -0.15450848639 -0.95105654001 0.26761654019
          -0.079979479313 -0.95105654001 0.29848745465 -0.00080900359899 -0.95105654001 0.3090158999
          0.00080900359899 -0.95105654001 0.3090158999 0.079979479313 -0.95105654001 0.29848745465
          0.15450848639 -0.95105654001 0.26761654019 0.2179351896 -0.95105654001 0.21907928586
          0.21907930076 -0.95105654001 0.2179351896 0.26761654019 -0.95105654001 0.15450847149
          0.29848745465 -0.95105654001 0.079979464412 0.3090158999 -0.95105654001 0.00080899009481
          0.3090158999 -0.95105654001 -0.00080901710317 0.29848745465 -0.95105654001 -0.079979486763
          0.26761654019 -0.95105654001 -0.15450850129 0.21907927096 -0.95105654001 -0.21793520451
          0.2179351747 -0.95105654001 -0.21907930076 0.15450845659 -0.95105654001 -0.26761654019
          0.079979449511 -0.95105654001 -0.29848748446 0.00080897659063 -0.95105654001 -0.3090158999
          -0.0015387650346 -0.80901700258 -0.58778321743 -0.15212996304 -0.80901700258 -0.56775695086
          -0.29389259219 -0.80901700258 -0.50903695822 -0.4145373702 -0.80901700258 -0.41671362519
          -0.41671356559 -0.80901700258 -0.41453742981 -0.50903689861 -0.80901700258 -0.2938926518
          -0.56775695086 -0.80901700258 -0.15213003755 -0.58778321743 -0.80901700258 -0.0015388421016
          -0.58778321743 -0.80901700258 0.0015387907624 -0.56775695086 -0.80901700258 0.15212999284
          -0.50903695822 -0.80901700258 0.29389259219 -0.41671362519 -0.80901700258 0.4145373702
          -0.41453740001 -0.80901700258 0.41671359539 -0.29389262199 -0.80901700258 0.50903695822
          -0.15213002264 -0.80901700258 0.56775695086 -0.0015388163738 -0.80901700258 0.58778321743
          0.0015388163738 -0.80901700258 0.58778321743 0.15213002264 -0.80901700258 0.56775695086
          0.29389262199 -0.80901700258 0.50903695822 0.41453740001 -0.80901700258 0.41671359539
          0.41671362519 -0.80901700258 0.4145373702 0.50903695822 -0.80901700258 0.29389259219
          0.56775695086 -0.80901700258 0.15212999284 0.58778321743 -0.80901700258 0.0015387907624
          0.58778321743 -0.80901700258 -0.0015388421016 0.56775695086 -0.80901700258 -0.15213003755
          0.50903689861 -0.80901700258 -0.2938926518 0.41671356559 -0.80901700258 -0.41453742981
          0.4145373702 -0.80901700258 -0.41671362519 0.29389259219 -0.80901700258 -0.50903695822
          0.15212996304 -0.80901700258 -0.56775695086 0.0015387650346 -0.80901700258 -0.58778321743
          -0.0021179283503 -0.58778524399 -0.80901420116 -0.20938894153 -0.58778524399 -0.78145039082
          -0.40450844169 -0.58778524399 -0.70062929392 -0.57056176662 -0.58778524399 -0.57355713844
          -0.57355707884 -0.58778524399 -0.57056182623 -0.70062923431 -0.58778524399 -0.40450853109
          -0.78145039082 -0.58778524399 -0.20938904583 -0.80901420116 -0.58778524399 -0.0021180345211
          -0.80901420116 -0.58778524399 0.0021179637406 -0.78145039082 -0.58778524399 0.20938897133
          -0.70062929392 -0.58778524399 0.40450847149 -0.57355707884 -0.58778524399 0.57056176662
          -0.57056176662 -0.58778524399 0.57355707884 -0.40450850129 -0.58778524399 0.70062923431
          -0.20938901603 -0.58778524399 0.78145039082 -0.0021179991309 -0.58778524399 0.80901420116
          0.0021179991309 -0.58778524399 0.80901420116 0.20938901603 -0.58778524399 0.78145039082
          0.40450850129 -0.58778524399 0.70062923431 0.57056176662 -0.58778524399 0.57355707884
          0.57355707884 -0.58778524399 0.57056176662 0.70062929392 -0.58778524399 0.40450847149
          0.78145039082 -0.58778524399 0.20938897133 0.80901420116 -0.58778524399 0.0021179637406
          0.80901420116 -0.58778524399 -0.0021180345211 0.78145039082 -0.58778524399 -0.20938904583
          0.70062923431 -0.58778524399 -0.40450853109 0.57355707884 -0.58778524399 -0.57056182623
          0.57056176662 -0.58778524399 -0.57355713844 0.40450844169 -0.58778524399 -0.70062929392
          0.20938894153 -0.58778524399 -0.78145039082 0.0021179283503 -0.58778524399 -0.80901420116
          -0.0024897742551 -0.30901700258 -0.95105326176 -0.2461514622 -0.30901700258 -0.91865009069
          -0.4755282104 -0.30901700258 -0.82363915443 -0.67073553801 -0.30901700258 -0.67425686121
          -0.674256742 -0.30901700258 -0.67073565722 -0.82363909483 -0.30901700258 -0.47552829981
          -0.91865003109 -0.30901700258 -0.24615158141 -0.95105326176 -0.30901700258 -0.0024898988195
          -0.95105326176 -0.30901700258 0.0024898156989 -0.91865003109 -0.30901700258 0.2461515069
          -0.82363909483 -0.30901700258 0.4755282402 -0.67425680161 -0.30901700258 0.67073559761
          -0.67073559761 -0.30901700258 0.67425680161 -0.47552827001 -0.30901700258 0.82363909483
          -0.2461515516 -0.30901700258 0.91865003109 -0.0024898573756 -0.30901700258 0.95105326176
          0.0024898573756 -0.30901700258 0.95105326176 0.2461515516 -0.30901700258 0.91865003109
          0.47552827001 -0.30901700258 0.82363909483 0.67073559761 -0.30901700258 0.67425680161
          0.67425680161 -0.30901700258 0.67073559761 0.82363909483 -0.30901700258 0.4755282402
          0.91865003109 -0.30901700258 0.2461515069 0.95105326176 -0.30901700258 0.0024898156989
          0.95105326176 -0.30901700258 -0.0024898988195 0.91865003109 -0.30901700258 -0.24615158141
          0.82363909483 -0.30901700258 -0.47552829981 0.674256742 -0.30901700258 -0.67073565722
          0.67073553801 -0.30901700258 -0.67425686121 0.4755282104 -0.30901700258 -0.82363915443
          0.2461514622 -0.30901700258 -0.91865009069 0.0024897742551 -0.30901700258 -0.95105326176
          -0.0026178907137 -0.0031415876001 -0.99999165535 -0.25881770253 -0.0031415876001 -0.96592110395
          -0.4999974668 -0.0031415876001 -0.86602115631 -0.70524960756 -0.0031415876001 -0.70895212889
          -0.70895200968 -0.0031415876001 -0.70524972677 -0.86602109671 -0.0031415876001 -0.49999758601
          -0.96592104435 -0.0031415876001 -0.25881782174 -0.99999165535 -0.0031415876001 -0.0026180217974
          -0.99999165535 -0.0031415876001 0.0026179342531 -0.96592104435 -0.0031415876001 0.25881773233
          -0.86602115631 -0.0031415876001 0.4999974966 -0.70895206928 -0.0031415876001 0.70524966717
          -0.70524966717 -0.0031415876001 0.70895206928 -0.49999755621 -0.0031415876001 0.86602109671
          -0.25881776214 -0.0031415876001 0.96592104435 -0.0026179780252 -0.0031415876001 0.99999165535
          0.0026179780252 -0.0031415876001 0.99999165535 0.25881776214 -0.0031415876001 0.96592104435
          0.49999755621 -0.0031415876001 0.86602109671 0.70524966717 -0.0031415876001 0.70895206928
          0.70895206928 -0.0031415876001 0.70524966717 0.86602115631 -0.0031415876001 0.4999974966
          0.96592104435 -0.0031415876001 0.25881773233 0.99999165535 -0.0031415876001 0.0026179342531
          0.99999165535 -0.0031415876001 -0.0026180217974 0.96592104435 -0.0031415876001 -0.25881782174
          0.86602109671 -0.0031415876001 -0.49999758601 0.70895200968 -0.0031415876001 -0.70524972677
          0.70524960756 -0.0031415876001 -0.70895212889 0.4999974668 -0.0031415876001 -0.86602115631
          0.25881770253 -0.0031415876001 -0.96592110395 0.0026178907137 -0.0031415876001 -0.99999165535
          -0.0026178907137 0.0031415876001 -0.99999165535 -0.25881770253 0.0031415876001 -0.96592110395
          -0.4999974668 0.0031415876001 -0.86602115631 -0.70524960756 0.0031415876001 -0.70895212889
          -0.70895200968 0.0031415876001 -0.70524972677 -0.86602109671 0.0031415876001 -0.49999758601
          -0.96592104435 0.0031415876001 -0.25881782174 -0.99999165535 0.0031415876001 -0.0026180217974
          -0.99999165535 0.0031415876001 0.0026179342531 -0.96592104435 0.0031415876001 0.25881773233
          -0.86602115631 0.0031415876001 0.4999974966 -0.70895206928 0.0031415876001 0.70524966717
          -0.70524966717 0.0031415876001 0.70895206928 -0.49999755621 0.0031415876001 0.86602109671
          -0.25881776214 0.0031415876001 0.96592104435 -0.0026179780252 0.0031415876001 0.99999165535
          0.0026179780252 0.0031415876001 0.99999165535 0.25881776214 0.0031415876001 0.96592104435
          0.49999755621 0.0031415876001 0.86602109671 0.70524966717 0.0031415876001 0.70895206928
          0.70895206928 0.0031415876001 0.70524966717 0.86602115631 0.0031415876001 0.4999974966
          0.96592104435 0.0031415876001 0.25881773233 0.99999165535 0.0031415876001 0.0026179342531
          0.99999165535 0.0031415876001 -0.0026180217974 0.96592104435 0.0031415876001 -0.25881782174
          0.86602109671 0.0031415876001 -0.49999758601 0.70895200968 0.0031415876001 -0.70524972677
          0.70524960756 0.0031415876001 -0.70895212889 0.4999974668 0.0031415876001 -0.86602115631
          0.25881770253 0.0031415876001 -0.96592110395 0.0026178907137 0.0031415876001 -0.99999165535
          -0.0024897742551 0.30901700258 -0.95105326176 -0.2461514622 0.30901700258 -0.91865009069
          -0.4755282104 0.30901700258 -0.82363915443 -0.67073553801 0.30901700258 -0.67425686121
          -0.674256742 0.30901700258 -0.67073565722 -0.82363909483 0.30901700258 -0.47552829981
          -0.91865003109 0.30901700258 -0.24615158141 -0.95105326176 0.30901700258 -0.0024898988195
          -0.95105326176 0.30901700258 0.0024898156989 -0.91865003109 0.30901700258 0.2461515069
          -0.82363909483 0.30901700258 0.4755282402 -0.67425680161 0.30901700258 0.67073559761
          -0.67073559761 0.30901700258 0.67425680161 -0.47552827001 0.30901700258 0.82363909483
          -0.2461515516 0.30901700258 0.91865003109 -0.0024898573756 0.30901700258 0.95105326176
          0.0024898573756 0.30901700258 0.95105326176 0.2461515516 0.30901700258 0.91865003109
          0.47552827001 0.30901700258 0.82363909483 0.67073559761 0.30901700258 0.67425680161
          0.67425680161 0.30901700258 0.67073559761 0.82363909483 0.30901700258 0.4755282402
          0.91865003109 0.30901700258 0.2461515069 0.95105326176 0.30901700258 0.0024898156989
          0.95105326176 0.30901700258 -0.0024898988195 0.91865003109 0.30901700258 -0.24615158141
          0.82363909483 0.30901700258 -0.47552829981 0.674256742 0.30901700258 -0.67073565722
          0.67073553801 0.30901700258 -0.67425686121 0.4755282104 0.30901700258 -0.82363915443
          0.2461514622 0.30901700258 -0.91865009069 0.0024897742551 0.30901700258 -0.95105326176
          -0.0021179283503 0.58778524399 -0.80901420116 -0.20938894153 0.58778524399 -0.78145039082
          -0.40450844169 0.58778524399 -0.70062929392 -0.57056176662 0.58778524399 -0.57355713844
          -0.57355707884 0.58778524399 -0.57056182623 -0.70062923431 0.58778524399 -0.40450853109
          -0.78145039082 0.58778524399 -0.20938904583 -0.80901420116 0.58778524399 -0.0021180345211
          -0.80901420116 0.58778524399 0.0021179637406 -0.78145039082 0.58778524399 0.20938897133
          -0.70062929392 0.58778524399 0.40450847149 -0.57355707884 0.58778524399 0.57056176662
          -0.57056176662 0.58778524399 0.57355707884 -0.40450850129 0.58778524399 0.70062923431
          -0.20938901603 0.58778524399 0.78145039082 -0.0021179991309 0.58778524399 0.80901420116
          0.0021179991309 0.58778524399 0.80901420116 0.20938901603 0.58778524399 0.78145039082
          0.40450850129 0.58778524399 0.70062923431 0.57056176662 0.58778524399 0.57355707884
          0.57355707884 0.58778524399 0.57056176662 0.70062929392 0.58778524399 0.40450847149
          0.78145039082 0.58778524399 0.20938897133 0.80901420116 0.58778524399 0.0021179637406
          0.80901420116 0.58778524399 -0.0021180345211 0.78145039082 0.58778524399 -0.20938904583
          0.70062923431 0.58778524399 -0.40450853109 0.57355707884 0.58778524399 -0.57056182623
          0.57056176662 0.58778524399 -0.57355713844 0.40450844169 0.58778524399 -0.70062929392
          0.20938894153 0.58778524399 -0.78145039082 0.0021179283503 0.58778524399 -0.80901420116
          -0.0015387650346 0.80901700258 -0.58778321743 -0.15212996304 0.80901700258 -0.56775695086
          -0.29389259219 0.80901700258 -0.50903695822 -0.4145373702 0.80901700258 -0.41671362519
          -0.41671356559 0.80901700258 -0.41453742981 -0.50903689861 0.80901700258 -0.2938926518
          -0.56775695086 0.80901700258 -0.15213003755 -0.58778321743 0.80901700258 -0.0015388421016
          -0.58778321743 0.80901700258 0.0015387907624 -0.56775695086 0.80901700258 0.15212999284
          -0.50903695822 0.80901700258 0.29389259219 -0.41671362519 0.80901700258 0.4145373702
          -0.41453740001 0.80901700258 0.41671359539 -0.29389262199 0.80901700258 0.50903695822
          -0.15213002264 0.80901700258 0.56775695086 -0.0015388163738 0.80901700258 0.58778321743
          0.0015388163738 0.80901700258 0.58778321743 0.15213002264 0.80901700258 0.56775695086
          0.29389262199 0.80901700258 0.50903695822 0.41453740001 0.80901700258 0.41671359539
          0.41671362519 0.80901700258 0.4145373702 0.50903695822 0.80901700258 0.29389259219
          0.56775695086 0.80901700258 0.15212999284 0.58778321743 0.80901700258 0.0015387907624
          0.58778321743 0.80901700258 -0.0015388421016 0.56775695086 0.80901700258 -0.15213003755
          0.50903689861 0.80901700258 -0.2938926518 0.41671356559 0.80901700258 -0.41453742981
          0.4145373702 0.80901700258 -0.41671362519 0.29389259219 0.80901700258 -0.50903695822
          0.15212996304 0.80901700258 -0.56775695086 0.0015387650346 0.80901700258 -0.58778321743
          -0.00080897659063 0.95105654001 -0.3090158999 -0.079979449511 0.95105654001 -0.29848748446
          -0.15450845659 0.95105654001 -0.26761654019 -0.2179351747 0.95105654001 -0.21907930076
          -0.21907927096 0.95105654001 -0.21793520451 -0.26761654019 0.95105654001 -0.15450850129
          -0.29848745465 0.95105654001 -0.079979486763 -0.3090158999 0.95105654001 -0.00080901710317
          -0.3090158999 0.95105654001 0.00080899009481 -0.29848745465 0.95105654001 0.079979464412
          -0.26761654019 0.95105654001 0.15450847149 -0.21907930076 0.95105654001 0.2179351896
          -0.2179351896 0.95105654001 0.21907928586 -0.15450848639 0.95105654001 0.26761654019
          -0.079979479313 0.95105654001 0.29848745465 -0.00080900359899 0.95105654001 0.3090158999
          0.00080900359899 0.95105654001 0.3090158999 0.079979479313 0.95105654001 0.29848745465
          0.15450848639 0.95105654001 0.26761654019 0.2179351896 0.95105654001 0.21907928586
          0.21907930076 0.95105654001 0.2179351896 0.26761654019 0.95105654001 0.15450847149
          0.29848745465 0.95105654001 0.079979464412 0.3090158999 0.95105654001 0.00080899009481
          0.3090158999 0.95105654001 -0.00080901710317 0.29848745465 0.95105654001 -0.079979486763
          0.26761654019 0.95105654001 -0.15450850129 0.21907927096 0.95105654001 -0.21793520451
          0.2179351747 0.95105654001 -0.21907930076 0.15450845659 0.95105654001 -0.26761654019
          0.079979449511 0.95105654001 -0.29848748446 0.00080897659063 0.95105654001 -0.3090158999
          -8.2242586359e-006 0.99999505281 -0.0031415331177 -0.00081309111556 0.99999505281 -0.0030344983097
          -0.0015707716811 0.99999505281 -0.0027206568047 -0.0022155835759 0.99999505281 -0.0022272150964
          -0.0022272148635 0.99999505281 -0.0022155838087 -0.0027206568047 0.99999505281 -0.0015707721468
          -0.0030344983097 0.99999505281 -0.00081309152301 -0.0031415331177 0.99999505281 -8.224670637e-006
          -0.0031415331177 0.99999505281 8.2243959696e-006 -0.0030344983097 0.99999505281 0.00081309129018
          -0.0027206568047 0.99999505281 0.0015707717976 -0.0022272150964 0.99999505281 0.0022155835759
          -0.0022155838087 0.99999505281 0.0022272148635 -0.001570771914 0.99999505281 0.0027206568047
          -0.0008130914066 0.99999505281 0.0030344983097 -8.2245333033e-006 0.99999505281 0.0031415331177
          8.2245333033e-006 0.99999505281 0.0031415331177 0.0008130914066 0.99999505281 0.0030344983097
          0.001570771914 0.99999505281 0.0027206568047 0.0022155838087 0.99999505281 0.0022272148635
          0.0022272150964 0.99999505281 0.0022155835759 0.0027206568047 0.99999505281 0.0015707717976
          0.0030344983097 0.99999505281 0.00081309129018 0.0031415331177 0.99999505281 8.2243959696e-006
          0.0031415331177 0.99999505281 -8.224670637e-006 0.0030344983097 0.99999505281 -0.00081309152301
          0.0027206568047 0.99999505281 -0.0015707721468 0.0022272148635 0.99999505281 -0.0022155838087
          0.0022155835759 0.99999505281 -0.0022272150964 0.0015707716811 0.99999505281 -0.0027206568047
          0.00081309111556 0.99999505281 -0.0030344983097 8.2242586359e-006 0.99999505281 -0.0031415331177
          8.2244878286e-006 0.99999505281 0.0031416204292 0.00081311375834 0.99999505281 0.0030345828272
          0.0015708154533 0.99999505281 0.0027207327075 0.002215645276 0.99999505281 0.0022272770293
          0.0022272767965 0.99999505281 0.0022156455088 0.0027207324747 0.99999505281 0.0015708158026
          0.0030345828272 0.99999505281 0.00081311416579 0.0031416204292 0.99999505281 8.2248998297e-006
          0.0031416204292 0.99999505281 -8.2246251623e-006 0.0030345828272 0.99999505281 -0.00081311387476
          0.0027207324747 0.99999505281 -0.0015708155697 0.0022272770293 0.99999505281 -0.002215645276
          0.0022156455088 0.99999505281 -0.0022272767965 0.0015708156861 0.99999505281 -0.0027207324747