<?xml version="1.0"?>
<VTKFile type="PolyData" version="0.1" byte_order="LittleEndian" compressor="vtkZLibDataCompressor">
	<PolyData>
		<Piece NumberOfPoints="460" NumberOfVerts="0" NumberOfLines="0" NumberOfStrips="0" NumberOfPolys="916">
		<PointData Normals="Normals">
		<DataArray type="Float32" Name="Normals" NumberOfComponents="3" format="ascii">
			-0.072071  0.060172  0.995583
			 0.064831  0.324829  0.943548
			 0.052894  0.604001  0.795226
			-0.106009 -0.060435  0.992527
			-0.085695 -0.056398  0.994724
			 0.158726 -0.000820  0.987322
			-0.140237  0.007061  0.990093
			-0.086532  0.111696  0.989968
			-0.103953  0.382527  0.918078
			 0.305026  0.579352  0.755851
			 0.243421  0.782554  0.573024
			 0.287291  0.904118  0.316282
			-0.082831 -0.133964  0.987518
			-0.306458  0.069792  0.949322
			 0.213280 -0.029093  0.976558
			 0.476258  0.111613  0.872193
			 0.467962 -0.001976  0.883746
			 0.488673  0.224836  0.842999
			-0.267170  0.482974  0.833881
			 0.063896  0.969694  0.235820
			-0.392439  0.002940  0.919773
			 0.478633  0.539656  0.692591
			 0.455201  0.661250  0.596273
			 0.365648  0.856877  0.363404
			 0.282322  0.811293  0.511955
			-0.129183  0.972869  0.191933
			 0.203042  0.111245  0.972830
			 0.190852 -0.080428  0.978318
			-0.415325 -0.011590  0.909599
			-0.474133  0.081057  0.876714
			-0.604338 -0.081529  0.792545
			-0.590068 -0.049404  0.805841
			-0.415270  0.381115  0.826016
			-0.177932  0.434954  0.882698
			-0.545702  0.236311  0.803969
			 0.273675  0.232403  0.933322
			 0.531853 -0.198383  0.823272
			 0.419323  0.122740  0.899502
			 0.378156  0.274384  0.884145
			 0.562362  0.572725  0.596436
			-0.430103  0.080893  0.899148
			-0.380192  0.623615  0.683050
			-0.636662  0.609981  0.471789
			 0.364837  0.730954 -0.576716
			 0.257766  0.958015 -0.125555
			 0.419467  0.875510  0.239852
			 0.580223  0.761437  0.289058
			-0.040826  0.914008  0.403637
			 0.046539  0.979213  0.197422
			-0.655773  0.729182 -0.195588
			-0.112995  0.979187  0.168596
			-0.448261  0.893092  0.038066
			 0.609121  0.035521  0.792282
			 0.462270  0.192863  0.865511
			-0.500351  0.134198  0.855359
			-0.571943  0.128796  0.810119
			-0.657009 -0.030388  0.753270
			-0.548831  0.102171  0.829666
			-0.591225  0.122140  0.797204
			-0.804182 -0.063864  0.590942
			-0.687666 -0.086183  0.720894
			-0.469623  0.146689  0.870596
			-0.531188 -0.260323  0.806270
			-0.293479  0.178566  0.939140
			-0.579916  0.257036  0.773065
			-0.525796  0.291175  0.799222
			-0.490580  0.418965  0.764068
			 0.658158  0.059252  0.750544
			 0.696692 -0.132660  0.704998
			-0.041214 -0.554561  0.831122
			 0.291578 -0.324029  0.899993
			 0.496306  0.141876  0.856476
			-0.045980 -0.953924  0.296505
			 0.751119 -0.338866  0.566561
			 0.701645 -0.522036  0.484946
			 0.478631  0.544739  0.688601
			 0.618206  0.709554  0.338164
			-0.689128  0.103757  0.717173
			-0.884702  0.130875  0.447409
			-0.905626  0.420067  0.058177
			 0.472403  0.552225 -0.686937
			 0.513034  0.852887  0.096850
			 0.185493  0.575232 -0.796681
			 0.499953  0.661216 -0.559321
			 0.432544  0.770945 -0.467494
			 0.063660  0.064281 -0.995899
			 0.050800  0.098715 -0.993818
			-0.039885  0.282728 -0.958371
			-0.013766  0.999741  0.018101
			 0.158024  0.751712 -0.640279
			 0.089438  0.964757 -0.247478
			 0.134632  0.474112 -0.870110
			 0.329458  0.873651  0.358039
			-0.017384  0.906655  0.421516
			 0.442960  0.877905  0.181851
			 0.499050  0.793004  0.349419
			-0.155913  0.964769  0.211927
			 0.586509  0.749115  0.307953
			 0.310549  0.828971  0.465152
			 0.587316  0.760428  0.277145
			-0.006203  0.986737  0.162207
			 0.098765  0.908149 -0.406829
			-0.422780  0.687946 -0.589904
			-0.424919  0.815450 -0.393045
			-0.850186  0.520173 -0.081266
			-0.859947  0.469241 -0.200760
			-0.665627  0.300513 -0.683105
			-0.426346  0.490810 -0.759826
			-0.100154  0.994123 -0.041093
			-0.229560  0.909702 -0.346040
			 0.769997 -0.022697  0.637644
			-0.757993 -0.084223  0.646802
			-0.697196  0.266608  0.665461
			-0.815391  0.336293  0.471217
			-0.948473  0.069345  0.309178
			-0.902207  0.328315  0.279701
			-0.608343  0.278546  0.743189
			-0.877150 -0.148978  0.456523
			-0.568385 -0.381463  0.728988
			-0.518552 -0.486241  0.703330
			-0.485472 -0.858086  0.167349
			-0.648603 -0.515300  0.560161
			-0.582698  0.413781  0.699463
			 0.769172 -0.085075  0.633353
			 0.429923 -0.878943  0.206460
			 0.812733 -0.209996  0.543476
			 0.799832 -0.095053  0.592650
			-0.077228  0.184968  0.979706
			 0.091430  0.546194  0.832654
			 0.107771 -0.516838  0.849272
			-0.327154 -0.756922  0.565720
			 0.228059 -0.369470  0.900822
			 0.243645 -0.104083  0.964263
			-0.393818 -0.663149  0.636507
			-0.068017 -0.889311  0.452216
			 0.715319 -0.518771  0.468183
			 0.691115 -0.460016  0.557446
			 0.831017 -0.316059  0.457730
			 0.749647 -0.451684  0.483747
			 0.721212 -0.322701  0.612958
			-0.080633 -0.810298  0.580444
			-0.944498  0.316187  0.089160
			 0.142257  0.824801  0.547235
			 0.562334  0.792383 -0.236453
			 0.403948  0.904391  0.137489
			 0.554320  0.778535 -0.294300
			 0.428640  0.770194 -0.472302
			-0.181622  0.559758 -0.808507
			 0.051216  0.194138 -0.979636
			 0.242511  0.270954 -0.931543
			-0.100615  0.427502  0.898398
			 0.460837  0.814696  0.351993
			-0.066594  0.997613  0.018262
			 0.036223  0.953605  0.298873
			 0.055985  0.618710  0.783622
			 0.098208  0.815573  0.570259
			 0.092277  0.866274  0.490973
			-0.100604  0.947095  0.304778
			-0.077379  0.996713  0.024011
			-0.457286  0.886937  0.065055
			-0.087085  0.789767  0.607194
			 0.275740  0.891972  0.358266
			 0.108012  0.942129  0.317373
			 0.023225  0.896421  0.442595
			 0.216019  0.552447 -0.805070
			 0.451856  0.149424 -0.879488
			-0.231261  0.566940 -0.790631
			-0.905643  0.413017 -0.096061
			-0.943770  0.200000 -0.263247
			-0.911531  0.354965 -0.207632
			-0.901414  0.387434 -0.193254
			 0.002340  0.214164 -0.976795
			 0.008334  0.143838 -0.989566
			-0.748596  0.133238 -0.649501
			-0.184566  0.348094 -0.919111
			-0.791420  0.356809  0.496329
			-0.838407 -0.040919  0.543507
			-0.824080  0.478853  0.302641
			-0.903421  0.412190  0.118022
			-0.938347  0.343060  0.042604
			-0.400676 -0.908680 -0.117301
			-0.313597 -0.935012  0.165557
			-0.223115 -0.958971 -0.174910
			-0.078018 -0.986996 -0.140541
			-0.101955 -0.994787 -0.002002
			 0.708434 -0.705042 -0.032196
			 0.852818 -0.354668  0.383291
			 0.840358 -0.090575  0.534410
			-0.125867 -0.266334  0.955628
			-0.204552  0.104977  0.973210
			 0.080137 -0.384712  0.919551
			-0.135350 -0.480625  0.866418
			-0.830506 -0.537021  0.147879
			-0.787034 -0.552945  0.273550
			-0.069766 -0.605304  0.792931
			-0.217834 -0.565269  0.795625
			-0.841268 -0.531045  0.101286
			 0.824184 -0.461407  0.328366
			 0.563221 -0.783819  0.261552
			-0.519953 -0.679586  0.517505
			-0.321494 -0.818343  0.476400
			-0.820109 -0.562049  0.107343
			-0.836215 -0.542183  0.082349
			 0.267293  0.860282  0.434131
			 0.433774  0.899523 -0.051955
			 0.072739  0.915880  0.394808
			 0.516135  0.792543 -0.324778
			 0.474999  0.724806 -0.499031
			 0.497196  0.790147 -0.358417
			 0.114754  0.696345 -0.708474
			-0.344642  0.237783 -0.908119
			-0.290826  0.441970 -0.848577
			-0.378960  0.464487 -0.800401
			-0.390547  0.576289 -0.717889
			-0.314680  0.549923 -0.773667
			 0.384589  0.023398 -0.922791
			 0.253083  0.118090 -0.960210
			-0.020913  0.396818 -0.917659
			-0.149486  0.052739 -0.987356
			 0.249088  0.059057  0.966679
			-0.387331 -0.305652  0.869800
			-0.021490 -0.123119  0.992159
			-0.240949  0.959525  0.145789
			-0.152866  0.944617  0.290397
			-0.167918  0.909163  0.381085
			 0.483536  0.320438  0.814563
			 0.071287  0.914600  0.398026
			 0.401847  0.677078  0.616510
			 0.169527  0.899802  0.402015
			 0.040422  0.907219  0.418712
			 0.078675  0.978662  0.189816
			 0.094661  0.987086  0.129231
			-0.390920  0.900328  0.191290
			-0.365728  0.904548  0.219171
			 0.348989  0.909804 -0.224639
			-0.068068  0.997500  0.018968
			 0.260459  0.930178 -0.258708
			 0.125363  0.986179 -0.108333
			 0.173992  0.953671 -0.245435
			-0.433970  0.865365  0.250626
			-0.366207  0.896940  0.247771
			-0.128419  0.848939  0.512652
			 0.205081  0.247368 -0.946969
			 0.486723  0.205943 -0.848933
			 0.401877 -0.062142 -0.913582
			 0.020251  0.182393 -0.983017
			-0.920375  0.378443 -0.098444
			-0.944014  0.315250 -0.097236
			-0.950094  0.284875 -0.127151
			-0.877935 -0.294694 -0.377341
			-0.570343 -0.819731  0.052435
			-0.677622 -0.734041 -0.044858
			-0.963765  0.215259 -0.157548
			 0.401152  0.144541 -0.904536
			 0.200697 -0.236814 -0.950600
			-0.356719 -0.221190 -0.907649
			 0.239123  0.404994 -0.882497
			 0.153993  0.470630 -0.868789
			 0.090206  0.204157 -0.974773
			-0.862626  0.372733  0.341976
			-0.975795 -0.061508  0.209860
			-0.341719 -0.936933 -0.073377
			-0.548812 -0.835633  0.022864
			-0.106371 -0.988373 -0.108647
			-0.538291 -0.825688  0.168768
			 0.231891 -0.890041 -0.392497
			-0.331334 -0.919354  0.212145
			 0.352874 -0.768209 -0.534168
			-0.414046 -0.197391  0.888596
			-0.564489 -0.478411  0.672663
			-0.656254 -0.489502  0.574212
			-0.336861 -0.859900  0.383532
			-0.175522 -0.497914  0.849278
			-0.288779 -0.957236  0.017514
			-0.674992 -0.686995  0.269115
			-0.492529 -0.662702  0.564129
			-0.557948 -0.768200  0.313947
			-0.502040 -0.765761  0.401954
			-0.511339 -0.728976  0.455111
			-0.887439 -0.446836 -0.113093
			-0.921618 -0.356768 -0.152764
			 0.387009  0.823507 -0.414801
			 0.356948  0.934078  0.009319
			 0.091002  0.982913  0.160000
			-0.169659  0.932431  0.319043
			-0.103989  0.889372  0.445201
			 0.510781  0.612411 -0.603370
			-0.221347  0.531803 -0.817429
			 0.170928  0.509269 -0.843462
			-0.422546 -0.098104 -0.901016
			-0.248024  0.565305 -0.786711
			-0.451918  0.141115 -0.880827
			-0.460031  0.139503 -0.876876
			-0.352377 -0.153766 -0.923140
			-0.060886  0.127631 -0.989951
			-0.098910 -0.088655 -0.991139
			-0.377696  0.300452 -0.875828
			-0.376340  0.110430 -0.919877
			-0.307114 -0.150445 -0.939706
			 0.209134 -0.093986 -0.973360
			-0.415795 -0.566901 -0.711153
			 0.446993 -0.040272  0.893631
			 0.220369 -0.157280  0.962653
			-0.221521  0.920762  0.321132
			-0.275859  0.931494  0.237107
			 0.626982 -0.140918  0.766182
			 0.763865  0.038922  0.644201
			 0.712923  0.044038  0.699859
			 0.664282  0.578738  0.473067
			 0.824818  0.183162  0.534909
			 0.541341  0.789445  0.289356
			 0.484780  0.867022 -0.115157
			 0.405809  0.883825 -0.232748
			 0.215547  0.964699 -0.151312
			 0.329271  0.914184 -0.236322
			 0.307808  0.879800 -0.362224
			 0.154341  0.950176 -0.270823
			-0.160863 -0.949018 -0.271087
			-0.040015 -0.994331  0.098509
			 0.462420  0.295050 -0.836130
			 0.493574  0.391718 -0.776493
			 0.271508 -0.567317 -0.777454
			 0.189049 -0.502536 -0.843634
			 0.400671 -0.646586 -0.649145
			 0.313391  0.438028 -0.842566
			 0.409787  0.606590 -0.681266
			 0.021869  0.558636 -0.829125
			 0.036505  0.084878 -0.995722
			-0.187602 -0.982156 -0.013213
			 0.454335 -0.489462 -0.744317
			 0.050459 -0.767050 -0.639600
			-0.073501 -0.708079 -0.702297
			-0.191032 -0.813520 -0.549265
			 0.823864 -0.386888  0.414205
			 0.362362 -0.600886  0.712481
			-0.847730 -0.517509 -0.116356
			-0.607356 -0.753383  0.252059
			 0.162398 -0.952211  0.258691
			 0.377639 -0.286719  0.880444
			-0.371338 -0.833875 -0.408363
			-0.379161 -0.909509 -0.170381
			-0.432236 -0.889686  0.147076
			-0.416374 -0.856200 -0.305868
			-0.479488 -0.860890  0.170176
			-0.677870 -0.730918  0.079062
			-0.462970 -0.804396  0.372298
			-0.361126 -0.822883  0.438693
			-0.537866 -0.798067  0.271641
			 0.525178  0.657083 -0.540768
			 0.108667  0.848393 -0.518093
			 0.415545  0.517375 -0.748095
			 0.456669  0.610300 -0.647292
			 0.378117  0.493856 -0.783029
			 0.601243  0.439808 -0.667140
			 0.626799  0.463101 -0.626626
			 0.407093  0.211523 -0.888557
			-0.143856  0.372881 -0.916660
			-0.342798  0.215510 -0.914355
			-0.411324 -0.215003 -0.885769
			-0.409703 -0.417862 -0.810885
			-0.377630 -0.361268 -0.852573
			 0.196870  0.169663 -0.965638
			-0.239612 -0.117057 -0.963786
			 0.003679  0.029713 -0.999552
			 0.178718 -0.240982 -0.953933
			-0.018640 -0.337756 -0.941049
			 0.202697  0.149597 -0.967747
			-0.311165 -0.422380 -0.851335
			-0.213732 -0.447730 -0.868249
			-0.125114 -0.165559 -0.978231
			 0.412643  0.189714 -0.890918
			 0.750416 -0.122955  0.649429
			 0.850013 -0.057654  0.523598
			 0.901113  0.279236  0.331697
			 0.882624  0.254945  0.394941
			 0.937867 -0.047185  0.343771
			 0.946627  0.072022  0.314180
			 0.904659  0.296990  0.305595
			 0.863217  0.468009  0.189273
			 0.396650  0.860357 -0.320087
			 0.713261  0.649474 -0.263519
			 0.984407  0.163204  0.065632
			 0.484154  0.673467 -0.558603
			 0.683563  0.595372 -0.422226
			 0.576990  0.756225 -0.308556
			 0.567535  0.233083 -0.789669
			 0.436507  0.591294 -0.678110
			 0.498546  0.289904 -0.816950
			 0.305753 -0.708003 -0.636590
			 0.221086 -0.429341 -0.875664
			 0.275362 -0.735925 -0.618539
			 0.521737  0.549413 -0.652637
			 0.644591  0.264591 -0.717283
			 0.117173  0.515497 -0.848842
			 0.294996  0.347486 -0.890074
			-0.004236  0.379061 -0.925362
			 0.222684  0.042103 -0.973981
			-0.101504 -0.240635 -0.965294
			 0.124677 -0.473641 -0.871849
			-0.222482 -0.441571 -0.869205
			-0.222721 -0.756994 -0.614293
			 0.296233 -0.457081 -0.838644
			 0.389963 -0.524848 -0.756613
			 0.255610 -0.598907 -0.758930
			-0.055828 -0.808858 -0.585347
			-0.121382 -0.867750 -0.481951
			-0.222387 -0.785261 -0.577849
			 0.949071  0.015878 -0.314661
			 0.793689 -0.604869  0.064746
			-0.443079 -0.819702  0.363002
			 0.094928 -0.986126 -0.136174
			 0.514687 -0.848325 -0.124268
			-0.168481 -0.982318 -0.081643
			-0.385676 -0.783892 -0.486587
			-0.332927 -0.829125 -0.449123
			-0.268654 -0.916024 -0.297867
			-0.363936 -0.930860 -0.032412
			-0.404587 -0.914373 -0.015200
			-0.541639 -0.823311  0.169663
			 0.455329 -0.215438 -0.863865
			 0.736274  0.415782 -0.533879
			-0.180330  0.066240 -0.981373
			 0.511710  0.146420 -0.846590
			-0.011899  0.625682 -0.779988
			 0.044891  0.565314 -0.823653
			 0.299013  0.420553 -0.856578
			-0.317828  0.213417 -0.923818
			-0.233609  0.033146 -0.971765
			-0.270264 -0.206485 -0.940384
			 0.206388  0.079026 -0.975274
			-0.245948 -0.020595 -0.969064
			 0.063590  0.248013 -0.966668
			 0.896211  0.402482 -0.186584
			 0.743022  0.605941 -0.284172
			 0.830895  0.428955 -0.354415
			 0.190004  0.206459 -0.959830
			 0.461511 -0.286497 -0.839600
			 0.423743  0.006576 -0.905759
			 0.359327 -0.115145 -0.926081
			-0.438379 -0.025240 -0.898436
			-0.369156 -0.612612 -0.698878
			-0.363007 -0.774308 -0.518337
			 0.331120 -0.255049 -0.908466
			 0.614015 -0.027260 -0.788824
			 0.022535  0.114960 -0.993115
			 0.633495 -0.462325 -0.620436
			 0.787158 -0.531737 -0.312471
			 0.232968 -0.859313 -0.455310
			-0.126628 -0.958549 -0.255243
			-0.213746 -0.960326 -0.179128
			-0.363501 -0.781475 -0.507113
			-0.048547 -0.740848 -0.669916
			-0.153385 -0.882827 -0.443948
			-0.200124 -0.919233 -0.339060
			-0.354630 -0.174866 -0.918509
			-0.445566  0.389318 -0.806165
			-0.243575 -0.589568 -0.770118
			-0.386222 -0.441949 -0.809638
			-0.330066 -0.618558 -0.713051
			-0.063398 -0.914969 -0.398512
		</DataArray>
	</PointData>
	<Points>
		<DataArray type="Float32" NumberOfComponents="3" format="ascii">
			 0.002161  0.007412  0.014116
			 0.003212  0.007850  0.014134
			 0.002001  0.008351  0.014013
			 0.002583  0.004964  0.014172
			 0.003961  0.004615  0.014243
			 0.005168  0.004483  0.014410
			 0.000846  0.006786  0.014068
			 0.000549  0.007963  0.013929
			-0.001245  0.009392  0.013596
			 0.004332  0.007386  0.014193
			 0.003291  0.008549  0.013483
			 0.003878  0.009066  0.011903
			 0.004206  0.003255  0.014197
			-0.002436  0.003867  0.013048
			 0.005542  0.003020  0.014219
			 0.008380  0.003729  0.012800
			 0.007334  0.004794  0.013426
			 0.007052  0.006394  0.013486
			-0.002831  0.009812  0.012923
			-0.000544  0.011094  0.009686
			-0.002468  0.008529  0.013116
			 0.006945  0.006985  0.013174
			 0.006922  0.007406  0.012800
			 0.006664  0.007840  0.012433
			 0.005337  0.008247  0.012756
			-0.003762  0.012263  0.000224
			 0.006124  0.001017  0.013939
			 0.005872  0.001972  0.014043
			-0.004907  0.007397  0.012011
			-0.007942  0.004272  0.010540
			-0.007623  0.002893  0.010838
			-0.006546  0.001606  0.011438
			-0.003448 -0.003725  0.014585
			 0.000066 -0.002816  0.016008
			-0.005251 -0.001132  0.012354
			 0.004130 -0.003859  0.016131
			 0.010119  0.001863  0.012237
			 0.008830  0.002842  0.012745
			 0.010149  0.003536  0.012011
			 0.010971  0.005779  0.010500
			-0.004005  0.008801  0.012427
			-0.004363  0.010492  0.011861
			-0.009949  0.009079  0.008177
			 0.009439  0.013602 -0.008452
			 0.005243  0.015213 -0.007623
			 0.013720  0.006424  0.002913
			 0.012178  0.009297 -0.002410
			 0.001679  0.014620 -0.003892
			 0.003009  0.015401 -0.005695
			-0.003868  0.013535 -0.010289
			 0.000189  0.015401 -0.005799
			-0.001938  0.015046 -0.007995
			 0.006847  0.000350  0.013808
			 0.006272 -0.000774  0.014397
			-0.005367  0.008841  0.011806
			-0.008999  0.006585  0.009581
			-0.008498  0.004448  0.010228
			-0.008203  0.005353  0.010203
			-0.007651  0.006985  0.010494
			-0.011263  0.004627  0.006415
			-0.006113  0.000302  0.011778
			-0.004227 -0.004987  0.015298
			-0.002173 -0.006324  0.016127
			-0.001009 -0.005084  0.017195
			-0.006970 -0.000399  0.010846
			-0.005443 -0.004700  0.014108
			-0.007200 -0.000976  0.010959
			 0.006824 -0.001087  0.014084
			 0.005339 -0.004724  0.015632
			 0.001592 -0.009154  0.016890
			 0.012240  0.002454  0.010808
			 0.011220  0.003713  0.011521
			 0.013076  0.001888  0.008419
			 0.011561 -0.000529  0.008095
			 0.012145  0.000999  0.008752
			 0.011753  0.004621  0.010942
			 0.011634  0.005580  0.009559
			-0.010115  0.006877  0.008595
			-0.011206  0.007192  0.007359
			-0.012303  0.006269  0.003053
			 0.010246  0.013157 -0.008599
			 0.011822  0.012146 -0.008127
			 0.006280  0.014462 -0.008564
			 0.011082  0.012545 -0.008421
			 0.012359  0.011625 -0.009109
			 0.006529  0.012579 -0.008736
			 0.006357  0.013641 -0.008673
			 0.006624  0.011336 -0.008805
			 0.003143  0.015500 -0.007007
			 0.004348  0.015124 -0.008297
			 0.003271  0.015463 -0.008038
			 0.005364  0.014727 -0.008586
			 0.012782  0.004789  0.009779
			 0.014145  0.004521  0.009490
			 0.014757  0.006116  0.000430
			 0.012154  0.005366  0.009169
			 0.015968  0.005965  0.006310
			 0.014097  0.007167 -0.000843
			 0.014143  0.008191 -0.003919
			 0.013908  0.007856 -0.002197
			 0.001575  0.015411 -0.005706
			 0.000878  0.015103 -0.009316
			-0.003537  0.013252 -0.011007
			-0.002741  0.014351 -0.010003
			-0.012860  0.004897 -0.000030
			-0.012291  0.004530 -0.005096
			-0.010083  0.004582 -0.012553
			-0.004282  0.011895 -0.011748
			-0.000748  0.015335 -0.007785
			-0.001604  0.015064 -0.009703
			 0.007323 -0.001329  0.013510
			-0.009935  0.005884  0.008802
			-0.011225 -0.000036  0.007103
			-0.012486  0.000581  0.005304
			-0.012082  0.006013  0.004721
			-0.013265  0.000605  0.003397
			-0.008916  0.000339  0.009112
			-0.011252  0.005882  0.006875
			-0.004647 -0.005728  0.014723
			-0.003229 -0.005864  0.015643
			-0.002137 -0.006841  0.015407
			-0.007840 -0.004578  0.013048
			-0.009524 -0.000572  0.009104
			 0.006895 -0.002314  0.013823
			 0.006593 -0.009352  0.009949
			 0.007251 -0.004269  0.013325
			 0.007648 -0.002604  0.012870
			 0.014814  0.003700  0.010125
			 0.014502  0.004141  0.010005
			 0.013955  0.001891  0.009899
			 0.013164  0.001708  0.009773
			 0.014268  0.002364  0.010047
			 0.013709  0.002905  0.010463
			 0.014575  0.000465  0.009257
			 0.013429  0.001527  0.007509
			 0.012397  0.000656  0.007937
			 0.012642  0.000362  0.007278
			 0.010336 -0.002612  0.008745
			 0.011389 -0.001867  0.007619
			 0.011936 -0.000879  0.007414
			 0.014345 -0.000018  0.005197
			-0.013218  0.003911 -0.000234
			 0.014806  0.009195 -0.004940
			 0.013893  0.010568 -0.008379
			 0.014506  0.010526 -0.007367
			 0.014881  0.009670 -0.008900
			 0.014668  0.009262 -0.010243
			 0.013776  0.007853 -0.012049
			 0.005550  0.010623 -0.008912
			 0.004309  0.014003 -0.008904
			 0.018056  0.004447  0.010913
			 0.014670  0.006730 -0.000889
			 0.015743  0.005756  0.003506
			 0.015166  0.006178  0.000000
			 0.019457  0.005150  0.010228
			 0.020710  0.005745  0.009550
			 0.021408  0.006276  0.008305
			 0.018693  0.006971  0.006032
			 0.021815  0.008704  0.000587
			 0.017538  0.006515  0.001205
			 0.015577  0.008055 -0.003784
			 0.014559  0.007372 -0.002197
			 0.014782  0.007552 -0.002815
			 0.014992  0.007695 -0.003305
			-0.001024  0.014243 -0.011063
			 0.001874  0.011163 -0.010432
			-0.003159  0.012882 -0.011570
			-0.013095  0.004167 -0.002055
			-0.013961 -0.000912 -0.005814
			-0.013353  0.003087 -0.003018
			-0.013010  0.003870 -0.003027
			-0.005130  0.002018 -0.014135
			-0.003914  0.009576 -0.012667
			-0.010706  0.001655 -0.011601
			-0.003587  0.011312 -0.012167
			-0.014010 -0.001722  0.004967
			-0.014534 -0.002941  0.004814
			-0.014175 -0.000675  0.003398
			-0.015483 -0.002150  0.001684
			-0.014572  0.000464 -0.000296
			 0.000907 -0.006007  0.007320
			-0.013518 -0.004050  0.004422
			-0.004738 -0.004452  0.007302
			-0.006131 -0.004060  0.006606
			 0.004628 -0.009620 -0.000773
			 0.009585 -0.005680  0.004900
			 0.009533 -0.003490  0.009815
			 0.008273 -0.003565  0.011848
			 0.015122  0.003217  0.010160
			 0.017393  0.003788  0.011022
			 0.014425  0.001181  0.009586
			 0.016189  0.001835  0.009457
			 0.014033  0.000890  0.007862
			 0.014632 -0.000167  0.008411
			 0.016532 -0.001770  0.008022
			 0.017681 -0.001547  0.007545
			 0.014360  0.000213  0.007143
			 0.010483 -0.003010  0.007545
			 0.012708 -0.004445  0.001166
			 0.016158 -0.003442  0.002037
			 0.014764 -0.003669  0.000613
			 0.016296 -0.003529  0.006169
			 0.017532 -0.004428  0.002379
			 0.015081  0.009912 -0.006327
			 0.016312  0.009610 -0.006772
			 0.017731  0.008892 -0.004872
			 0.015468  0.009163 -0.009222
			 0.016427  0.007775 -0.010783
			 0.016031  0.008581 -0.009729
			 0.014616  0.007678 -0.012277
			 0.006707  0.005663 -0.010559
			 0.013330  0.005914 -0.013186
			 0.011988  0.006142 -0.012467
			 0.011317  0.006009 -0.012200
			 0.010660  0.005847 -0.011980
			 0.003704  0.010895 -0.009592
			 0.002508  0.007914 -0.009819
			 0.003721  0.007509 -0.009986
			 0.004540  0.006758 -0.010361
			 0.019076  0.001957  0.011076
			 0.017634  0.001702  0.010995
			 0.018314  0.001792  0.011122
			 0.016751  0.006145  0.000989
			 0.016008  0.006190  0.000239
			 0.017252  0.007614 -0.002560
			 0.021176  0.004933  0.009967
			 0.022604  0.006599  0.007260
			 0.022926  0.006276  0.007768
			 0.024136  0.007598  0.004953
			 0.023301  0.007112  0.006047
			 0.024378  0.007882  0.003924
			 0.024007  0.008033  0.002512
			 0.018808  0.007615 -0.001232
			 0.018616  0.007386 -0.000591
			 0.022210  0.008218 -0.002166
			 0.020535  0.008555 -0.002228
			 0.023300  0.007736 -0.001997
			 0.024415  0.008106  0.000576
			 0.024217  0.007526 -0.002055
			 0.017765  0.006902 -0.000299
			 0.017309  0.006511  0.000218
			 0.016146  0.007990 -0.003452
			-0.001573  0.011751 -0.012268
			 0.000109  0.011432 -0.011416
			-0.000753  0.010707 -0.011985
			-0.002682  0.010780 -0.012479
			-0.013817  0.002471 -0.001931
			-0.014220  0.001604 -0.001741
			-0.014867 -0.000836 -0.000683
			-0.012001 -0.006467 -0.013055
			-0.014281 -0.005399 -0.005791
			-0.015407 -0.004457 -0.000086
			-0.015319 -0.001974 -0.000041
			 0.000228  0.007262 -0.010933
			-0.004485 -0.002894 -0.014471
			-0.011173 -0.005987 -0.014719
			 0.000579  0.003485 -0.012133
			-0.000157  0.002443 -0.012854
			-0.002650  0.000407 -0.014346
			-0.014846 -0.001905  0.003116
			-0.015925 -0.003257  0.001879
			-0.001345 -0.004676  0.004220
			 0.000322 -0.005580  0.004575
			-0.005340 -0.003770  0.004709
			-0.000176 -0.005394  0.001645
			 0.000660 -0.009899 -0.007438
			-0.002269 -0.004305  0.001282
			 0.004441 -0.005305 -0.005477
			 0.016882  0.003155  0.010947
			 0.016501  0.002478  0.010223
			 0.016892  0.001745  0.010184
			 0.019307 -0.008341  0.002300
			 0.019148  0.000065  0.010646
			 0.011079 -0.004782 -0.006937
			 0.018346 -0.006476  0.000448
			 0.016194 -0.004232  0.001193
			 0.015535 -0.005504 -0.001698
			 0.015959 -0.005244 -0.000635
			 0.016222 -0.004799  0.000511
			 0.018226 -0.006331  0.002638
			 0.017559 -0.005090  0.003544
			 0.022749  0.005949 -0.007172
			 0.017899  0.008957 -0.005574
			 0.019221  0.008337 -0.004429
			 0.018278  0.007775 -0.002541
			 0.017327  0.007958 -0.003336
			 0.017299  0.006697 -0.011356
			 0.014320  0.006464 -0.013185
			 0.015291  0.006140 -0.013564
			 0.006637  0.004766 -0.010481
			 0.009624  0.005398 -0.011989
			 0.008493  0.005004 -0.011902
			 0.007379  0.004251 -0.010896
			 0.008162  0.004241 -0.011364
			 0.014372  0.005565 -0.013652
			 0.013400  0.004595 -0.013575
			 0.012600  0.005530 -0.013065
			 0.009712  0.004655 -0.012407
			 0.012111  0.004269 -0.013191
			 0.002073  0.007400 -0.009964
			 0.004278  0.006465 -0.010002
			 0.020865  0.001621  0.010299
			 0.019494  0.001108  0.010867
			 0.016648  0.006347  0.000223
			 0.018512  0.007672 -0.001952
			 0.022122  0.002071  0.009586
			 0.024542  0.003331  0.007035
			 0.023345  0.002622  0.008365
			 0.025422  0.007170  0.004642
			 0.025634  0.005823  0.005414
			 0.025479  0.007646  0.003698
			 0.026268  0.007990  0.000456
			 0.021425  0.007988 -0.003947
			 0.019743  0.008298 -0.004877
			 0.020703  0.008365 -0.003991
			 0.024774  0.006341 -0.005794
			 0.024814  0.007763 -0.000826
			-0.009305 -0.007921 -0.012704
			-0.006347 -0.003674  0.002019
			 0.001590  0.006089 -0.010630
			 0.001254  0.004616 -0.011386
			-0.007933 -0.006692 -0.014344
			 0.000449 -0.001015 -0.013840
			-0.001668 -0.003836 -0.011398
			 0.001805  0.003510 -0.011845
			 0.002650  0.002573 -0.011947
			 0.000313  0.002055 -0.013014
			 0.000457  0.000138 -0.014197
			-0.003766 -0.003965  0.002932
			-0.002836 -0.008015 -0.010275
			 0.006485 -0.002187 -0.009956
			 0.008624 -0.003442 -0.008558
			 0.010144 -0.004371 -0.008094
			 0.024997 -0.004185  0.004465
			 0.022155 -0.005369  0.006301
			 0.019117 -0.007664  0.001388
			 0.020272 -0.008568 -0.002307
			 0.021360 -0.008817 -0.001740
			 0.019921  0.000226  0.010599
			 0.012239 -0.005134 -0.008021
			 0.014888 -0.006654 -0.007375
			 0.016377 -0.007143 -0.005948
			 0.013650 -0.005944 -0.007735
			 0.016564 -0.007027 -0.004779
			 0.019596 -0.007813 -0.000971
			 0.018701 -0.008206 -0.002720
			 0.019396 -0.008146 -0.002292
			 0.016532 -0.006682 -0.002846
			 0.020412  0.005618 -0.009685
			 0.023497  0.005767 -0.007320
			 0.021809  0.001663 -0.013109
			 0.019763  0.005199 -0.010898
			 0.018561  0.004905 -0.011683
			 0.017846  0.005229 -0.012008
			 0.017135  0.005936 -0.012277
			 0.016084  0.005727 -0.013400
			 0.006616  0.002028 -0.011351
			 0.006134  0.004582 -0.010280
			 0.005328  0.005504 -0.010023
			 0.009473  0.004136 -0.012069
			 0.009421  0.003496 -0.011654
			 0.007478  0.001144 -0.011360
			 0.009493  0.002592 -0.011426
			 0.008268  0.001962 -0.011265
			 0.014879  0.004966 -0.013488
			 0.013902  0.003782 -0.013244
			 0.018581  0.003719 -0.012291
			 0.010862  0.003111 -0.012121
			 0.012474  0.003508 -0.012856
			 0.004051  0.006125 -0.009621
			 0.002390  0.006774 -0.009933
			 0.023700  0.001866  0.007917
			 0.025393  0.003831  0.005830
			 0.026405  0.006480  0.003271
			 0.026049  0.006186  0.004316
			 0.026180  0.004363  0.004483
			 0.026418  0.005368  0.003651
			 0.026639  0.006776  0.002387
			 0.026856  0.007028  0.001404
			 0.025742  0.007175 -0.001841
			 0.026348  0.006941 -0.001413
			 0.027060  0.006559  0.000782
			 0.024149  0.005688 -0.007307
			 0.025578  0.005968 -0.005119
			 0.025623  0.006656 -0.003592
			 0.002007  0.005539 -0.010622
			 0.003437  0.002623 -0.010956
			 0.002492  0.004885 -0.010293
			 0.001594 -0.001209 -0.013119
			 0.001037 -0.000652 -0.013964
			 0.002943 -0.001410 -0.012164
			 0.003893  0.001189 -0.012049
			 0.003337  0.001010 -0.013249
			 0.001270  0.001491 -0.013650
			 0.002671  0.000753 -0.013680
			 0.000898  0.000882 -0.013920
			 0.001521 -0.000083 -0.013973
			 0.009705 -0.001071 -0.011433
			 0.007747 -0.000836 -0.011370
			 0.009845 -0.001590 -0.011123
			 0.008766 -0.002317 -0.010219
			 0.005812 -0.001073 -0.011623
			 0.003447 -0.000904 -0.012554
			 0.004628 -0.001026 -0.012032
			 0.007737 -0.002629 -0.009404
			 0.008170 -0.002485 -0.009835
			 0.009120 -0.003145 -0.008890
			 0.026972  0.000344 -0.006867