<?xml version="1.0"?>
<VTKFile type="PolyData" version="0.1" byte_order="LittleEndian" compressor="vtkZLibDataCompressor">
	<PolyData>
		<Piece NumberOfPoints="460" NumberOfVerts="0" NumberOfLines="0" NumberOfStrips="0" NumberOfPolys="916">
		<PointData Normals="Normals">
		<DataArray type="Float32" Name="Normals" NumberOfComponents="3" format="ascii">
			-0.072058  0.060191 -0.995583
			 0.064835  0.324829 -0.943548
			 0.052871  0.603989 -0.795237
			-0.106019 -0.060450 -0.992525
			-0.085704 -0.056416 -0.994722
			 0.158738 -0.000807 -0.987320
			-0.140231  0.007067 -0.990094
			-0.086502  0.111756 -0.989964
			-0.103944  0.382537 -0.918075
			 0.305035  0.579341 -0.755855
			 0.243424  0.782557 -0.573018
			 0.287294  0.904114 -0.316290
			-0.082857 -0.133991 -0.987513
			-0.306458  0.069792 -0.949322
			 0.213285 -0.029089 -0.976557
			 0.476250  0.111613 -0.872197
			 0.467953 -0.001955 -0.883751
			 0.488664  0.224796 -0.843015
			-0.267160  0.482968 -0.833887
			 0.063893  0.969692 -0.235826
			-0.392425  0.002926 -0.919779
			 0.478631  0.539630 -0.692612
			 0.455183  0.661294 -0.596237
			 0.365653  0.856878 -0.363397
			 0.282348  0.811276 -0.511968
			-0.129184  0.972869 -0.191932
			 0.203023  0.111229 -0.972836
			 0.190835 -0.080437 -0.978321
			-0.415338 -0.011602 -0.909593
			-0.474120  0.081054 -0.876721
			-0.604330 -0.081518 -0.792553
			-0.590079 -0.049440 -0.805831
			-0.415284  0.381111 -0.826011
			-0.177931  0.434951 -0.882699
			-0.545694  0.236321 -0.803972
			 0.273664  0.232410 -0.933324
			 0.531850 -0.198382 -0.823274
			 0.419316  0.122722 -0.899507
			 0.378141  0.274381 -0.884152
			 0.562366  0.572722 -0.596434
			-0.430123  0.080883 -0.899139
			-0.380205  0.623616 -0.683043
			-0.636655  0.609991 -0.471785
			 0.364844  0.730964  0.576698
			 0.257784  0.958013  0.125534
			 0.419471  0.875509 -0.239850
			 0.580228  0.761433 -0.289059
			-0.040810  0.914013 -0.403627
			 0.046549  0.979210 -0.197438
			-0.655773  0.729184  0.195584
			-0.112986  0.979189 -0.168592
			-0.448263  0.893091 -0.038063
			 0.609104  0.035544 -0.792293
			 0.462214  0.192885 -0.865536
			-0.500358  0.134195 -0.855356
			-0.571954  0.128783 -0.810113
			-0.656989 -0.030369 -0.753288
			-0.548848  0.102126 -0.829661
			-0.591202  0.122141 -0.797222
			-0.804181 -0.063862 -0.590944
			-0.687677 -0.086203 -0.720881
			-0.469609  0.146717 -0.870599
			-0.531187 -0.260311 -0.806275
			-0.293486  0.178552 -0.939141
			-0.579895  0.257062 -0.773073
			-0.525782  0.291194 -0.799224
			-0.490562  0.418976 -0.764073
			 0.658137  0.059272 -0.750562
			 0.696679 -0.132660 -0.705010
			-0.041222 -0.554557 -0.831124
			 0.291586 -0.324047 -0.899984
			 0.496312  0.141867 -0.856474
			-0.045966 -0.953928 -0.296493
			 0.751114 -0.338874 -0.566561
			 0.701653 -0.522039 -0.484932
			 0.478629  0.544742 -0.688600
			 0.618245  0.709523 -0.338159
			-0.689126  0.103758 -0.717175
			-0.884705  0.130859 -0.447406
			-0.905627  0.420066 -0.058179
			 0.472254  0.551922  0.687283
			 0.513045  0.852889 -0.096775
			 0.185496  0.575281  0.796645
			 0.499886  0.661099  0.559519
			 0.432540  0.770948  0.467491
			 0.063690  0.064269  0.995898
			 0.050818  0.098744  0.993814
			-0.039876  0.282732  0.958370
			-0.013759  0.999741 -0.018136
			 0.158056  0.751708  0.640276
			 0.089457  0.964758  0.247468
			 0.134640  0.474126  0.870101
			 0.329431  0.873657 -0.358047
			-0.017377  0.906652 -0.421520
			 0.442960  0.877904 -0.181854
			 0.499033  0.793020 -0.349408
			-0.155912  0.964770 -0.211922
			 0.586495  0.749112 -0.307986
			 0.310532  0.828979 -0.465149
			 0.587320  0.760420 -0.277159
			-0.006177  0.986739 -0.162197
			 0.098758  0.908153  0.406824
			-0.422777  0.687950  0.589902
			-0.424917  0.815451  0.393046
			-0.850192  0.520165  0.081254
			-0.859958  0.469222  0.200757
			-0.665625  0.300510  0.683109
			-0.426315  0.490804  0.759846
			-0.100163  0.994122  0.041095
			-0.229569  0.909702  0.346036
			 0.770007 -0.022684 -0.637633
			-0.757999 -0.084241 -0.646793
			-0.697199  0.266605 -0.665459
			-0.815389  0.336286 -0.471225
			-0.948470  0.069325 -0.309190
			-0.902208  0.328311 -0.279700
			-0.608341  0.278575 -0.743180
			-0.877149 -0.149001 -0.456518
			-0.568386 -0.381444 -0.728998
			-0.518543 -0.486213 -0.703356
			-0.485474 -0.858084 -0.167353
			-0.648606 -0.515305 -0.560153
			-0.582704  0.413794 -0.699451
			 0.769173 -0.085080 -0.633352
			 0.429916 -0.878946 -0.206462
			 0.812734 -0.209979 -0.543481
			 0.799833 -0.095055 -0.592649
			-0.077231  0.184941 -0.979710
			 0.091431  0.546172 -0.832668
			 0.107789 -0.516806 -0.849290
			-0.327139 -0.756919 -0.565732
			 0.228050 -0.369477 -0.900822
			 0.243635 -0.104137 -0.964260
			-0.393809 -0.663157 -0.636504
			-0.067981 -0.889319 -0.452206
			 0.715337 -0.518781 -0.468145
			 0.691129 -0.460025 -0.557421
			 0.831020 -0.316051 -0.457732
			 0.749647 -0.451675 -0.483754
			 0.721206 -0.322681 -0.612975
			-0.080636 -0.810288 -0.580458
			-0.944503  0.316169 -0.089174
			 0.142248  0.824797 -0.547243
			 0.562339  0.792377  0.236460
			 0.403953  0.904394 -0.137453
			 0.554298  0.778558  0.294281
			 0.428625  0.770183  0.472332
			-0.181621  0.559783  0.808491
			 0.051221  0.194137  0.979636
			 0.242524  0.270953  0.931540
			-0.100612  0.427498 -0.898400
			 0.460846  0.814684 -0.352009
			-0.066598  0.997613 -0.018247
			 0.036197  0.953596 -0.298906
			 0.055985  0.618685 -0.783642
			 0.098239  0.815558 -0.570275
			 0.092302  0.866269 -0.490977
			-0.100602  0.947096 -0.304776
			-0.077384  0.996712 -0.024015
			-0.457283  0.886938 -0.065063
			-0.087036  0.789811 -0.607144
			 0.275742  0.891964 -0.358282
			 0.107969  0.942126 -0.317398
			 0.023222  0.896433 -0.442571
			 0.216012  0.552439  0.805077
			 0.451852  0.149423  0.879490
			-0.231253  0.566932  0.790639
			-0.905656  0.412982  0.096087
			-0.943770  0.200000  0.263245
			-0.911525  0.354968  0.207656
			-0.901431  0.387377  0.193290
			 0.002342  0.214159  0.976796
			 0.008341  0.143833  0.989567
			-0.748602  0.133230  0.649496
			-0.184572  0.348078  0.919116
			-0.791425  0.356796 -0.496330
			-0.838407 -0.040909 -0.543507
			-0.824092  0.478833 -0.302640
			-0.903417  0.412198 -0.118025
			-0.938346  0.343058 -0.042622
			-0.400677 -0.908680  0.117296
			-0.313602 -0.935010 -0.165560
			-0.223112 -0.958973  0.174906
			-0.078012 -0.986997  0.140537
			-0.101959 -0.994787  0.002004
			 0.708435 -0.705041  0.032195
			 0.852823 -0.354649 -0.383297
			 0.840363 -0.090555 -0.534407
			-0.125878 -0.266344 -0.955623
			-0.204532  0.104991 -0.973213
			 0.080150 -0.384720 -0.919547
			-0.135339 -0.480641 -0.866410
			-0.830507 -0.537021 -0.147877
			-0.787043 -0.552925 -0.273565
			-0.069752 -0.605290 -0.792943
			-0.217833 -0.565258 -0.795633
			-0.841277 -0.531029 -0.101298
			 0.824186 -0.461401 -0.328368
			 0.563226 -0.783817 -0.261549
			-0.519957 -0.679572 -0.517520
			-0.321508 -0.818342 -0.476392
			-0.820099 -0.562060 -0.107356
			-0.836217 -0.542180 -0.082345
			 0.267278  0.860284 -0.434135
			 0.433780  0.899520  0.051947
			 0.072730  0.915872 -0.394828
			 0.516139  0.792530  0.324802
			 0.474991  0.724809  0.499034
			 0.497213  0.790130  0.358432
			 0.114759  0.696352  0.708467
			-0.344638  0.237787  0.908120
			-0.290831  0.441968  0.848576
			-0.378946  0.464475  0.800414
			-0.390583  0.576336  0.717832
			-0.314721  0.549983  0.773608
			 0.384588  0.023389  0.922792
			 0.253082  0.118099  0.960210
			-0.020946  0.396796  0.917668
			-0.149508  0.052700  0.987355
			 0.249098  0.059083 -0.966674
			-0.387332 -0.305658 -0.869797
			-0.021501 -0.123102 -0.992161
			-0.240978  0.959508 -0.145858
			-0.152893  0.944590 -0.290472
			-0.167896  0.909177 -0.381062
			 0.483547  0.320422 -0.814562
			 0.071301  0.914593 -0.398039
			 0.401861  0.677066 -0.616514
			 0.169538  0.899800 -0.402016
			 0.040443  0.907217 -0.418714
			 0.078682  0.978660 -0.189823
			 0.094665  0.987085 -0.129238
			-0.390976  0.900305 -0.191282
			-0.365750  0.904537 -0.219180
			 0.349019  0.909793  0.224637
			-0.068070  0.997500 -0.018970
			 0.260435  0.930180  0.258725
			 0.125389  0.986175  0.108336
			 0.173995  0.953666  0.245452
			-0.433944  0.865374 -0.250639
			-0.366206  0.896934 -0.247797
			-0.128336  0.848997 -0.512576
			 0.205094  0.247383  0.946963
			 0.486711  0.205956  0.848937
			 0.401886 -0.062118  0.913580
			 0.020227  0.182403  0.983016
			-0.920368  0.378458  0.098447
			-0.944011  0.315273  0.097195
			-0.950099  0.284863  0.127143
			-0.877940 -0.294694  0.377329
			-0.570345 -0.819730 -0.052431
			-0.677626 -0.734037  0.044863
			-0.963761  0.215277  0.157546
			 0.401157  0.144538  0.904534
			 0.200705 -0.236821  0.950596
			-0.356730 -0.221195  0.907643
			 0.239136  0.405005  0.882488
			 0.153976  0.470625  0.868794
			 0.090201  0.204157  0.974774
			-0.862623  0.372744 -0.341970
			-0.975798 -0.061462 -0.209859
			-0.341715 -0.936934  0.073379
			-0.548808 -0.835636 -0.022862
			-0.106374 -0.988373  0.108643
			-0.538297 -0.825685 -0.168764
			 0.231890 -0.890039  0.392502
			-0.331336 -0.919355 -0.212136
			 0.352873 -0.768204  0.534175
			-0.414027 -0.197406 -0.888602
			-0.564484 -0.478426 -0.672656
			-0.656252 -0.489504 -0.574212
			-0.336853 -0.859903 -0.383532
			-0.175540 -0.497918 -0.849272
			-0.288775 -0.957237 -0.017523
			-0.674978 -0.687005 -0.269127
			-0.492541 -0.662687 -0.564135
			-0.557949 -0.768198 -0.313949
			-0.502066 -0.765755 -0.401931
			-0.511364 -0.728978 -0.455081
			-0.887423 -0.446874  0.113064
			-0.921609 -0.356806  0.152734
			 0.387004  0.823512  0.414796
			 0.356926  0.934086 -0.009355
			 0.090973  0.982912 -0.160024
			-0.169669  0.932428 -0.319046
			-0.104003  0.889388 -0.445167
			 0.510776  0.612414  0.603371
			-0.221329  0.531833  0.817415
			 0.170932  0.509286  0.843452
			-0.422559 -0.098115  0.901009
			-0.248034  0.565315  0.786701
			-0.451918  0.141154  0.880821
			-0.460052  0.139504  0.876864
			-0.352390 -0.153752  0.923137
			-0.060876  0.127603  0.989955
			-0.098901 -0.088647  0.991141
			-0.377693  0.300434  0.875835
			-0.376356  0.110446  0.919868
			-0.307102 -0.150436  0.939711
			 0.209160 -0.093989  0.973354
			-0.415798 -0.566910  0.711144
			 0.446987 -0.040252 -0.893634
			 0.220368 -0.157251 -0.962658
			-0.221508  0.920753 -0.321167
			-0.275900  0.931479 -0.237118
			 0.626985 -0.140924 -0.766179
			 0.763874  0.038915 -0.644192
			 0.712938  0.044000 -0.699845
			 0.664297  0.578717 -0.473071
			 0.824822  0.183162 -0.534903
			 0.541342  0.789447 -0.289349
			 0.484804  0.867008  0.115160
			 0.405848  0.883808  0.232746
			 0.215516  0.964708  0.151303
			 0.329295  0.914175  0.236323
			 0.307800  0.879806  0.362216
			 0.154388  0.950167  0.270828
			-0.160868 -0.949016  0.271089
			-0.040019 -0.994332 -0.098498
			 0.462425  0.295036  0.836132
			 0.493578  0.391717  0.776492
			 0.271512 -0.567320  0.777450
			 0.189042 -0.502552  0.843626
			 0.400668 -0.646594  0.649138
			 0.313391  0.438059  0.842550
			 0.409796  0.606588  0.681262
			 0.021880  0.558635  0.829125
			 0.036518  0.084885  0.995721
			-0.187610 -0.982155  0.013224
			 0.454334 -0.489453  0.744323
			 0.050465 -0.767040  0.639611
			-0.073492 -0.708061  0.702316
			-0.191044 -0.813517  0.549266
			 0.823867 -0.386884 -0.414204
			 0.362366 -0.600885 -0.712480
			-0.847718 -0.517532  0.116340
			-0.607345 -0.753394 -0.252051
			 0.162399 -0.952211 -0.258690
			 0.377638 -0.286723 -0.880442
			-0.371334 -0.833885  0.408346
			-0.379179 -0.909503  0.170375
			-0.432258 -0.889672 -0.147092
			-0.416356 -0.856227  0.305816
			-0.479444 -0.860912 -0.170187
			-0.677856 -0.730931 -0.079064
			-0.462944 -0.804423 -0.372271
			-0.361089 -0.822904 -0.438683
			-0.537860 -0.798070 -0.271646
			 0.525181  0.657089  0.540759
			 0.108627  0.848414  0.518067
			 0.415542  0.517381  0.748092
			 0.456672  0.610301  0.647289
			 0.378110  0.493861  0.783029
			 0.601245  0.439809  0.667137
			 0.626804  0.463103  0.626620
			 0.407089  0.211497  0.888565
			-0.143870  0.372894  0.916652
			-0.342801  0.215489  0.914359
			-0.411309 -0.214976  0.885782
			-0.409695 -0.417872  0.810884
			-0.377625 -0.361269  0.852575
			 0.196854  0.169652  0.965643
			-0.239604 -0.117060  0.963788
			 0.003687  0.029707  0.999552
			 0.178725 -0.241027  0.953920
			-0.018634 -0.337741  0.941055
			 0.202702  0.149616  0.967743
			-0.311162 -0.422380  0.851336
			-0.213735 -0.447740  0.868243
			-0.125114 -0.165533  0.978236
			 0.412651  0.189701  0.890917
			 0.750427 -0.122995 -0.649409
			 0.850014 -0.057657 -0.523595
			 0.901118  0.279207 -0.331708
			 0.882623  0.254931 -0.394952
			 0.937866 -0.047199 -0.343772
			 0.946627  0.072022 -0.314183
			 0.904663  0.297007 -0.305567
			 0.863215  0.468026 -0.189240
			 0.396640  0.860365  0.320076
			 0.713252  0.649492  0.263499
			 0.984408  0.163200 -0.065627
			 0.484178  0.673457  0.558594
			 0.683573  0.595359  0.422228
			 0.576997  0.756219  0.308555
			 0.567537  0.233070  0.789671
			 0.436492  0.591287  0.678125
			 0.498546  0.289901  0.816951
			 0.305753 -0.707997  0.636597
			 0.221085 -0.429332  0.875668
			 0.275372 -0.735899  0.618566
			 0.521744  0.549412  0.652632
			 0.644599  0.264591  0.717275
			 0.117189  0.515497  0.848840
			 0.295002  0.347484  0.890072
			-0.004177  0.379081  0.925354
			 0.222704  0.042134  0.973975
			-0.101497 -0.240654  0.965290
			 0.124676 -0.473642  0.871848
			-0.222473 -0.441571  0.869207
			-0.222721 -0.756973  0.614319
			 0.296211 -0.457093  0.838645
			 0.389970 -0.524837  0.756618
			 0.255606 -0.598934  0.758909
			-0.055844 -0.808872  0.585327
			-0.121397 -0.867757  0.481934
			-0.222392 -0.785261  0.577847
			 0.949073  0.015874  0.314656
			 0.793687 -0.604870 -0.064746
			-0.443062 -0.819723 -0.362973
			 0.094920 -0.986126  0.136181
			 0.514687 -0.848325  0.124270
			-0.168483 -0.982317  0.081648
			-0.385670 -0.783894  0.486590
			-0.332918 -0.829139  0.449103
			-0.268641 -0.916020  0.297890
			-0.363946 -0.930856  0.032423
			-0.404561 -0.914385  0.015208
			-0.541596 -0.823340 -0.169662
			 0.455330 -0.215433  0.863865
			 0.736271  0.415795  0.533872
			-0.180339  0.066245  0.981371
			 0.511714  0.146412  0.846589
			-0.011913  0.625655  0.780009
			 0.044887  0.565310  0.823657
			 0.298995  0.420544  0.856589
			-0.317807  0.213402  0.923828
			-0.233627  0.033143  0.971761
			-0.270262 -0.206479  0.940385
			 0.206388  0.079015  0.975275
			-0.245943 -0.020611  0.969065
			 0.063572  0.248009  0.966670
			 0.896197  0.402519  0.186571
			 0.743012  0.605950  0.284181
			 0.830881  0.428978  0.354421
			 0.189990  0.206424  0.959840
			 0.461522 -0.286490  0.839596
			 0.423733  0.006593  0.905763
			 0.359323 -0.115146  0.926082
			-0.438378 -0.025210  0.898437
			-0.369159 -0.612585  0.698900
			-0.363009 -0.774309  0.518333
			 0.331138 -0.255064  0.908455
			 0.613990 -0.027278  0.788842
			 0.022505  0.114935  0.993118
			 0.633501 -0.462323  0.620430
			 0.787163 -0.531729  0.312471
			 0.232978 -0.859309  0.455312
			-0.126636 -0.958550  0.255236
			-0.213735 -0.960323  0.179156
			-0.363492 -0.781483  0.507107
			-0.048548 -0.740850  0.669913
			-0.153383 -0.882828  0.443947
			-0.200140 -0.919235  0.339044
			-0.354629 -0.174839  0.918515
			-0.445569  0.389333  0.806157
			-0.243573 -0.589563  0.770122
			-0.386225 -0.441917  0.809654
			-0.330055 -0.618551  0.713063
			-0.063401 -0.914973  0.398503
		</DataArray>
	</PointData>
	<Points>
		<DataArray type="Float32" NumberOfComponents="3" format="ascii">
			 0.002161  0.007412 -0.014116
			 0.003212  0.007850 -0.014134
			 0.002001  0.008351 -0.014013
			 0.002583  0.004964 -0.014172
			 0.003961  0.004615 -0.014243
			 0.005168  0.004483 -0.014410
			 0.000846  0.006786 -0.014068
			 0.000549  0.007963 -0.013929
			-0.001245  0.009392 -0.013596
			 0.004332  0.007386 -0.014193
			 0.003291  0.008549 -0.013483
			 0.003878  0.009066 -0.011903
			 0.004206  0.003255 -0.014197
			-0.002436  0.003867 -0.013048
			 0.005542  0.003020 -0.014219
			 0.008380  0.003729 -0.012800
			 0.007334  0.004794 -0.013426
			 0.007052  0.006394 -0.013486
			-0.002831  0.009812 -0.012923
			-0.000544  0.011094 -0.009686
			-0.002468  0.008529 -0.013116
			 0.006945  0.006985 -0.013174
			 0.006922  0.007406 -0.012800
			 0.006664  0.007840 -0.012433
			 0.005337  0.008247 -0.012756
			-0.003762  0.012263 -0.000224
			 0.006124  0.001017 -0.013939
			 0.005872  0.001972 -0.014043
			-0.004907  0.007397 -0.012011
			-0.007942  0.004272 -0.010540
			-0.007623  0.002893 -0.010838
			-0.006546  0.001606 -0.011438
			-0.003448 -0.003725 -0.014585
			 0.000066 -0.002816 -0.016008
			-0.005251 -0.001132 -0.012354
			 0.004130 -0.003859 -0.016131
			 0.010119  0.001863 -0.012237
			 0.008830  0.002842 -0.012745
			 0.010149  0.003536 -0.012011
			 0.010971  0.005779 -0.010500
			-0.004005  0.008801 -0.012427
			-0.004363  0.010492 -0.011861
			-0.009949  0.009079 -0.008177
			 0.009439  0.013602  0.008452
			 0.005243  0.015213  0.007623
			 0.013720  0.006424 -0.002913
			 0.012178  0.009297  0.002410
			 0.001679  0.014620  0.003892
			 0.003009  0.015401  0.005695
			-0.003868  0.013535  0.010289
			 0.000189  0.015401  0.005799
			-0.001938  0.015046  0.007995
			 0.006847  0.000350 -0.013808
			 0.006272 -0.000774 -0.014397
			-0.005367  0.008841 -0.011806
			-0.008999  0.006585 -0.009581
			-0.008498  0.004448 -0.010228
			-0.008203  0.005353 -0.010203
			-0.007651  0.006985 -0.010494
			-0.011263  0.004627 -0.006415
			-0.006113  0.000302 -0.011778
			-0.004227 -0.004987 -0.015298
			-0.002173 -0.006324 -0.016127
			-0.001009 -0.005084 -0.017195
			-0.006970 -0.000399 -0.010846
			-0.005443 -0.004700 -0.014108
			-0.007200 -0.000976 -0.010959
			 0.006824 -0.001087 -0.014084
			 0.005339 -0.004724 -0.015632
			 0.001592 -0.009154 -0.016890
			 0.012240  0.002454 -0.010808
			 0.011220  0.003713 -0.011521
			 0.013076  0.001888 -0.008419
			 0.011561 -0.000529 -0.008095
			 0.012145  0.000999 -0.008752
			 0.011753  0.004621 -0.010942
			 0.011634  0.005580 -0.009559
			-0.010115  0.006877 -0.008595
			-0.011206  0.007192 -0.007359
			-0.012303  0.006269 -0.003053
			 0.010246  0.013157  0.008599
			 0.011822  0.012146  0.008127
			 0.006280  0.014462  0.008564
			 0.011082  0.012545  0.008421
			 0.012359  0.011625  0.009109
			 0.006529  0.012579  0.008736
			 0.006357  0.013641  0.008673
			 0.006624  0.011336  0.008805
			 0.003143  0.015500  0.007007
			 0.004348  0.015124  0.008297
			 0.003271  0.015463  0.008038
			 0.005364  0.014727  0.008586
			 0.012782  0.004789 -0.009779
			 0.014145  0.004521 -0.009490
			 0.014757  0.006116 -0.000430
			 0.012154  0.005366 -0.009169
			 0.015968  0.005965 -0.006310
			 0.014097  0.007167  0.000843
			 0.014143  0.008191  0.003919
			 0.013908  0.007856  0.002197
			 0.001575  0.015411  0.005706
			 0.000878  0.015103  0.009316
			-0.003537  0.013252  0.011007
			-0.002741  0.014351  0.010003
			-0.012860  0.004897  0.000030
			-0.012291  0.004530  0.005096
			-0.010083  0.004582  0.012553
			-0.004282  0.011895  0.011748
			-0.000748  0.015335  0.007785
			-0.001604  0.015064  0.009703
			 0.007323 -0.001329 -0.013510
			-0.009935  0.005884 -0.008802
			-0.011225 -0.000036 -0.007103
			-0.012486  0.000581 -0.005304
			-0.012082  0.006013 -0.004721
			-0.013265  0.000605 -0.003397
			-0.008916  0.000339 -0.009112
			-0.011252  0.005882 -0.006875
			-0.004647 -0.005728 -0.014723
			-0.003229 -0.005864 -0.015643
			-0.002137 -0.006841 -0.015407
			-0.007840 -0.004578 -0.013048
			-0.009524 -0.000572 -0.009104
			 0.006895 -0.002314 -0.013823
			 0.006593 -0.009352 -0.009949
			 0.007251 -0.004269 -0.013325
			 0.007648 -0.002604 -0.012870
			 0.014814  0.003700 -0.010125
			 0.014502  0.004141 -0.010005
			 0.013955  0.001891 -0.009899
			 0.013164  0.001708 -0.009773
			 0.014268  0.002364 -0.010047
			 0.013709  0.002905 -0.010463
			 0.014575  0.000465 -0.009257
			 0.013429  0.001527 -0.007509
			 0.012397  0.000656 -0.007937
			 0.012642  0.000362 -0.007278
			 0.010336 -0.002612 -0.008745
			 0.011389 -0.001867 -0.007619
			 0.011936 -0.000879 -0.007414
			 0.014345 -0.000018 -0.005197
			-0.013218  0.003911  0.000234
			 0.014806  0.009195  0.004940
			 0.013893  0.010568  0.008379
			 0.014506  0.010526  0.007367
			 0.014881  0.009670  0.008900
			 0.014668  0.009262  0.010243
			 0.013776  0.007853  0.012049
			 0.005550  0.010623  0.008912
			 0.004309  0.014003  0.008904
			 0.018056  0.004447 -0.010913
			 0.014670  0.006730  0.000889
			 0.015743  0.005756 -0.003506
			 0.015166  0.006178  0.000000
			 0.019457  0.005150 -0.010228
			 0.020710  0.005745 -0.009550
			 0.021408  0.006276 -0.008305
			 0.018693  0.006971 -0.006032
			 0.021815  0.008704 -0.000587
			 0.017538  0.006515 -0.001205
			 0.015577  0.008055  0.003784
			 0.014559  0.007372  0.002197
			 0.014782  0.007552  0.002815
			 0.014992  0.007695  0.003305
			-0.001024  0.014243  0.011063
			 0.001874  0.011163  0.010432
			-0.003159  0.012882  0.011570
			-0.013095  0.004167  0.002055
			-0.013961 -0.000912  0.005814
			-0.013353  0.003087  0.003018
			-0.013010  0.003870  0.003027
			-0.005130  0.002018  0.014135
			-0.003914  0.009576  0.012667
			-0.010706  0.001655  0.011601
			-0.003587  0.011312  0.012167
			-0.014010 -0.001722 -0.004967
			-0.014534 -0.002941 -0.004814
			-0.014175 -0.000675 -0.003398
			-0.015483 -0.002150 -0.001684
			-0.014572  0.000464  0.000296
			 0.000907 -0.006007 -0.007320
			-0.013518 -0.004050 -0.004422
			-0.004738 -0.004452 -0.007302
			-0.006131 -0.004060 -0.006606
			 0.004628 -0.009620  0.000773
			 0.009585 -0.005680 -0.004900
			 0.009533 -0.003490 -0.009815
			 0.008273 -0.003565 -0.011848
			 0.015122  0.003217 -0.010160
			 0.017393  0.003788 -0.011022
			 0.014425  0.001181 -0.009586
			 0.016189  0.001835 -0.009457
			 0.014033  0.000890 -0.007862
			 0.014632 -0.000167 -0.008411
			 0.016532 -0.001770 -0.008022
			 0.017681 -0.001547 -0.007545
			 0.014360  0.000213 -0.007143
			 0.010483 -0.003010 -0.007545
			 0.012708 -0.004445 -0.001166
			 0.016158 -0.003442 -0.002037
			 0.014764 -0.003669 -0.000613
			 0.016296 -0.003529 -0.006169
			 0.017532 -0.004428 -0.002379
			 0.015081  0.009912  0.006327
			 0.016312  0.009610  0.006772
			 0.017731  0.008892  0.004872
			 0.015468  0.009163  0.009222
			 0.016427  0.007775  0.010783
			 0.016031  0.008581  0.009729
			 0.014616  0.007678  0.012277
			 0.006707  0.005663  0.010559
			 0.013330  0.005914  0.013186
			 0.011988  0.006142  0.012467
			 0.011317  0.006009  0.012200
			 0.010660  0.005847  0.011980
			 0.003704  0.010895  0.009592
			 0.002508  0.007914  0.009819
			 0.003721  0.007509  0.009986
			 0.004540  0.006758  0.010361
			 0.019076  0.001957 -0.011076
			 0.017634  0.001702 -0.010995
			 0.018314  0.001792 -0.011122
			 0.016751  0.006145 -0.000989
			 0.016008  0.006190 -0.000239
			 0.017252  0.007614  0.002560
			 0.021176  0.004933 -0.009967
			 0.022604  0.006599 -0.007260
			 0.022926  0.006276 -0.007768
			 0.024136  0.007598 -0.004953
			 0.023301  0.007112 -0.006047
			 0.024378  0.007882 -0.003924
			 0.024007  0.008033 -0.002512
			 0.018808  0.007615  0.001232
			 0.018616  0.007386  0.000591
			 0.022210  0.008218  0.002166
			 0.020535  0.008555  0.002228
			 0.023300  0.007736  0.001997
			 0.024415  0.008106 -0.000576
			 0.024217  0.007526  0.002055
			 0.017765  0.006902  0.000299
			 0.017309  0.006511 -0.000218
			 0.016146  0.007990  0.003452
			-0.001573  0.011751  0.012268
			 0.000109  0.011432  0.011416
			-0.000753  0.010707  0.011985
			-0.002682  0.010780  0.012479
			-0.013817  0.002471  0.001931
			-0.014220  0.001604  0.001741
			-0.014867 -0.000836  0.000683
			-0.012001 -0.006467  0.013055
			-0.014281 -0.005399  0.005791
			-0.015407 -0.004457  0.000086
			-0.015319 -0.001974  0.000041
			 0.000228  0.007262  0.010933
			-0.004485 -0.002894  0.014471
			-0.011173 -0.005987  0.014719
			 0.000579  0.003485  0.012133
			-0.000157  0.002443  0.012854
			-0.002650  0.000407  0.014346
			-0.014846 -0.001905 -0.003116
			-0.015925 -0.003257 -0.001879
			-0.001345 -0.004676 -0.004220
			 0.000322 -0.005580 -0.004575
			-0.005340 -0.003770 -0.004709
			-0.000176 -0.005394 -0.001645
			 0.000660 -0.009899  0.007438
			-0.002269 -0.004305 -0.001282
			 0.004441 -0.005305  0.005477
			 0.016882  0.003155 -0.010947
			 0.016501  0.002478 -0.010223
			 0.016892  0.001745 -0.010184
			 0.019307 -0.008341 -0.002300
			 0.019148  0.000065 -0.010646
			 0.011079 -0.004782  0.006937
			 0.018346 -0.006476 -0.000448
			 0.016194 -0.004232 -0.001193
			 0.015535 -0.005504  0.001698
			 0.015959 -0.005244  0.000635
			 0.016222 -0.004799 -0.000511
			 0.018226 -0.006331 -0.002638
			 0.017559 -0.005090 -0.003544
			 0.022749  0.005949  0.007172
			 0.017899  0.008957  0.005574
			 0.019221  0.008337  0.004429
			 0.018278  0.007775  0.002541
			 0.017327  0.007958  0.003336
			 0.017299  0.006697  0.011356
			 0.014320  0.006464  0.013185
			 0.015291  0.006140  0.013564
			 0.006637  0.004766  0.010481
			 0.009624  0.005398  0.011989
			 0.008493  0.005004  0.011902
			 0.007379  0.004251  0.010896
			 0.008162  0.004241  0.011364
			 0.014372  0.005565  0.013652
			 0.013400  0.004595  0.013575
			 0.012600  0.005530  0.013065
			 0.009712  0.004655  0.012407
			 0.012111  0.004269  0.013191
			 0.002073  0.007400  0.009964
			 0.004278  0.006465  0.010002
			 0.020865  0.001621 -0.010299
			 0.019494  0.001108 -0.010867
			 0.016648  0.006347 -0.000223
			 0.018512  0.007672  0.001952
			 0.022122  0.002071 -0.009586
			 0.024542  0.003331 -0.007035
			 0.023345  0.002622 -0.008365
			 0.025422  0.007170 -0.004642
			 0.025634  0.005823 -0.005414
			 0.025479  0.007646 -0.003698
			 0.026268  0.007990 -0.000456
			 0.021425  0.007988  0.003947
			 0.019743  0.008298  0.004877
			 0.020703  0.008365  0.003991
			 0.024774  0.006341  0.005794
			 0.024814  0.007763  0.000826
			-0.009305 -0.007921  0.012704
			-0.006347 -0.003674 -0.002019
			 0.001590  0.006089  0.010630
			 0.001254  0.004616  0.011386
			-0.007933 -0.006692  0.014344
			 0.000449 -0.001015  0.013840
			-0.001668 -0.003836  0.011398
			 0.001805  0.003510  0.011845
			 0.002650  0.002573  0.011947
			 0.000313  0.002055  0.013014
			 0.000457  0.000138  0.014197
			-0.003766 -0.003965 -0.002932
			-0.002836 -0.008015  0.010275
			 0.006485 -0.002187  0.009956
			 0.008624 -0.003442  0.008558
			 0.010144 -0.004371  0.008094
			 0.024997 -0.004185 -0.004465
			 0.022155 -0.005369 -0.006301
			 0.019117 -0.007664 -0.001388
			 0.020272 -0.008568  0.002307
			 0.021360 -0.008817  0.001740
			 0.019921  0.000226 -0.010599
			 0.012239 -0.005134  0.008021
			 0.014888 -0.006654  0.007375
			 0.016377 -0.007143  0.005948
			 0.013650 -0.005944  0.007735
			 0.016564 -0.007027  0.004779
			 0.019596 -0.007813  0.000971
			 0.018701 -0.008206  0.002720
			 0.019396 -0.008146  0.002292
			 0.016532 -0.006682  0.002846
			 0.020412  0.005618  0.009685
			 0.023497  0.005767  0.007320
			 0.021809  0.001663  0.013109
			 0.019763  0.005199  0.010898
			 0.018561  0.004905  0.011683
			 0.017846  0.005229  0.012008
			 0.017135  0.005936  0.012277
			 0.016084  0.005727  0.013400
			 0.006616  0.002028  0.011351
			 0.006134  0.004582  0.010280
			 0.005328  0.005504  0.010023
			 0.009473  0.004136  0.012069
			 0.009421  0.003496  0.011654
			 0.007478  0.001144  0.011360
			 0.009493  0.002592  0.011426
			 0.008268  0.001962  0.011265
			 0.014879  0.004966  0.013488
			 0.013902  0.003782  0.013244
			 0.018581  0.003719  0.012291
			 0.010862  0.003111  0.012121
			 0.012474  0.003508  0.012856
			 0.004051  0.006125  0.009621
			 0.002390  0.006774  0.009933
			 0.023700  0.001866 -0.007917
			 0.025393  0.003831 -0.005830
			 0.026405  0.006480 -0.003271
			 0.026049  0.006186 -0.004316
			 0.026180  0.004363 -0.004483
			 0.026418  0.005368 -0.003651
			 0.026639  0.006776 -0.002387
			 0.026856  0.007028 -0.001404
			 0.025742  0.007175  0.001841
			 0.026348  0.006941  0.001413
			 0.027060  0.006559 -0.000782
			 0.024149  0.005688  0.007307
			 0.025578  0.005968  0.005119
			 0.025623  0.006656  0.003592
			 0.002007  0.005539  0.010622
			 0.003437  0.002623  0.010956
			 0.002492  0.004885  0.010293
			 0.001594 -0.001209  0.013119
			 0.001037 -0.000652  0.013964
			 0.002943 -0.001410  0.012164
			 0.003893  0.001189  0.012049
			 0.003337  0.001010  0.013249
			 0.001270  0.001491  0.013650
			 0.002671  0.000753  0.013680
			 0.000898  0.000882  0.013920
			 0.001521 -0.000083  0.013973
			 0.009705 -0.001071  0.011433
			 0.007747 -0.000836  0.011370
			 0.009845 -0.001590  0.011123
			 0.008766 -0.002317  0.010219
			 0.005812 -0.001073  0.011623
			 0.003447 -0.000904  0.012554
			 0.004628 -0.001026  0.012032
			 0.007737 -0.002629  0.009404
			 0.008170 -0.002485  0.009835
			 0.009120 -0.003145  0.008890
			 0.026972  0.000344  0.006867