<?xml version="1.0"?>
<VTKFile type="PolyData" version="0.1" byte_order="LittleEndian" compressor="vtkZLibDataCompressor">
	<PolyData>
		<Piece NumberOfPoints="146" NumberOfVerts="0" NumberOfLines="0" NumberOfStrips="0" NumberOfPolys="288">
		<PointData Normals="Normals">
		<DataArray type="Float32" Name="Normals" NumberOfComponents="3" format="ascii">
			 0.622375  0.549206 -0.557694
			-0.237965  0.901004 -0.362718
			 0.160726  0.642369 -0.749353
			 0.815331  0.203366 -0.542105
			 0.559116  0.782923 -0.272801
			 0.866582 -0.113359 -0.485988
			 0.930521 -0.101812 -0.351802
			 0.958209 -0.082243 -0.273991
			-0.250548  0.797350 -0.549052
			 0.111284  0.708302  0.697082
			-0.183082  0.884529 -0.429056
			 0.334643  0.921159  0.198696
			-0.203233  0.632107 -0.747754
			 0.680640 -0.034713 -0.731795
			 0.574717  0.739780  0.349894
			 0.977521 -0.150305 -0.147852
			 0.994997  0.082773  0.055937
			 0.815467 -0.459859 -0.351486
			-0.171895  0.762226 -0.624071
			 0.240956  0.312075  0.918994
			 0.358399  0.329776  0.873383
			 0.897705 -0.220372  0.381525
			 0.525373  0.069471  0.848031
			 0.008275  0.861148 -0.508287
			 0.267229  0.938883 -0.216995
			 0.607513  0.757267  0.239737
			 0.775006  0.494388  0.393632
			 0.665194  0.267306  0.697183
			-0.394475  0.072750 -0.916022
			-0.319915 -0.098886 -0.942272
			 0.589374 -0.273458 -0.760170
			 0.749687 -0.445524 -0.489364
			 0.788026  0.186994  0.586556
			 0.710291 -0.481853 -0.513132
			 0.659464 -0.513518 -0.549005
			 0.595968 -0.555458 -0.579904
			-0.105713  0.863150 -0.493759
			 0.002477  0.800811 -0.598913
			 0.811587 -0.568914 -0.132904
			 0.505853  0.100936  0.856694
			 0.854793 -0.518940  0.005456
			 0.843173 -0.364651  0.395080
			 0.263036 -0.117834  0.957563
			 0.485070 -0.175763  0.856630
			 0.296607  0.183721  0.937161
			 0.334318  0.185557  0.924013
			 0.551305 -0.025369  0.833918
			 0.649577  0.021189  0.760001
			 0.793621  0.376482  0.477940
			 0.132069  0.963307  0.233661
			 0.557449  0.812223  0.171885
			 0.533409  0.725379  0.435086
			-0.408881 -0.384939 -0.827429
			-0.413438 -0.397344 -0.819260
			-0.566535 -0.000829 -0.824038
			-0.383492 -0.443236 -0.810232
			-0.537319 -0.565903 -0.625334
			-0.645081 -0.386151 -0.659361
			 0.117398 -0.568368 -0.814356
			 0.336121 -0.610099 -0.717497
			 0.718946 -0.600633 -0.349795
			 0.771483 -0.591178 -0.235207
			-0.058941 -0.579709 -0.812689
			 0.159361 -0.629057 -0.760849
			 0.543507 -0.648396 -0.533089
			-0.777382  0.154484 -0.609764
			-0.426651  0.876769 -0.221913
			-0.367792  0.902768  0.223021
			 0.772181 -0.632946  0.055819
			 0.647058 -0.761438  0.039094
			 0.582590 -0.811065 -0.052560
			 0.713598 -0.590694  0.376641
			 0.329166 -0.251590  0.910139
			 0.319368  0.061432  0.945638
			 0.118724 -0.273984  0.954378
			-0.117678 -0.676191  0.727267
			 0.109197 -0.434454  0.894050
			 0.277547 -0.388142  0.878814
			 0.026448 -0.743975  0.667684
			 0.496950 -0.157023  0.853455
			-0.098432  0.034115  0.994559
			 0.036076 -0.203458  0.978419
			 0.465631  0.103799  0.878871
			 0.686408  0.565278  0.457499
			 0.305257  0.378196  0.873948
			-0.158742  0.452551  0.877496
			-0.346886 -0.544424 -0.763723
			-0.658471 -0.532005 -0.532341
			-0.600603 -0.516315 -0.610488
			-0.688871 -0.504576 -0.520441
			-0.529925 -0.694038 -0.487330
			-0.302290 -0.949008  0.089467
			-0.637977 -0.300225 -0.709119
			-0.391482 -0.920132  0.009956
			 0.468844 -0.760167 -0.449813
			 0.614323 -0.725510 -0.310231
			 0.585996 -0.799114 -0.134263
			-0.076956 -0.860539 -0.503538
			-0.706266 -0.338305 -0.621883
			-0.989324  0.130231  0.065403
			-0.809895 -0.419127 -0.410369
			-0.886877 -0.369078 -0.277903
			-0.592910  0.783372  0.186511
			-0.764173  0.487262  0.422629
			-0.507465  0.827418  0.240539
			-0.554668  0.464795  0.690151
			-0.438848  0.174777  0.881400
			 0.221912 -0.945607  0.237870
			 0.457816 -0.889043 -0.002755
			-0.216280 -0.884004  0.414439
			-0.245714 -0.822147  0.513517
			 0.007201 -0.649977  0.759920
			-0.080413 -0.849691  0.521113
			-0.174957 -0.876453  0.448575
			-0.177182 -0.725977  0.664503
			-0.279240 -0.118698  0.952857
			 0.219843 -0.228916  0.948297
			-0.615501  0.283453  0.735399
			-0.503484  0.090144  0.859289
			-0.472495  0.006567  0.881309
			-0.827026 -0.496432 -0.263787
			-0.855588 -0.473103 -0.210102
			-0.717458 -0.514328  0.469809
			-0.960271 -0.171731  0.219971
			-0.637761 -0.648979 -0.414833
			-0.840607 -0.300907 -0.450372
			-0.393694 -0.914556 -0.092694
			-0.408857 -0.909327 -0.077198
			 0.207976 -0.946116  0.248216
			-0.828712 -0.371636 -0.418477
			-0.830193 -0.524795 -0.188068
			-0.957179 -0.102491  0.270748
			-0.702713  0.143388  0.696874
			-0.737094  0.007993  0.675743
			-0.885195 -0.447740 -0.126330
			-0.615768  0.383157  0.688491
			-0.546951  0.033815  0.836481
			-0.193126 -0.888244  0.416804
			-0.560773 -0.821992  0.099310
			-0.606415 -0.794039 -0.041992
			-0.556518 -0.829562 -0.045984
			-0.278634 -0.281979  0.918069
			-0.867604 -0.131230  0.479627
			-0.795192 -0.204659  0.570774
			-0.497993 -0.056820  0.865317
			-0.899174 -0.347286  0.266229
		</DataArray>
	</PointData>
	<Points>
		<DataArray type="Float32" NumberOfComponents="3" format="ascii">
			 0.097881  0.028891 -0.004987
			 0.096248  0.028286 -0.005175
			 0.096699  0.026871 -0.007478
			 0.097407  0.027728 -0.006365
			 0.098692  0.029804 -0.002838
			 0.096731  0.026299 -0.007676
			 0.098176  0.027915 -0.005055
			 0.098652  0.028430 -0.003548
			 0.095614  0.027187 -0.006630
			 0.096773  0.029435  0.000690
			 0.095146  0.028181 -0.004653
			 0.093725  0.029727  0.001111
			 0.095830  0.025888 -0.008276
			 0.095860  0.025360 -0.008496
			 0.098691  0.030020 -0.000820
			 0.099046  0.028855 -0.002050
			 0.099064  0.028952 -0.000958
			 0.094335  0.021632 -0.007675
			 0.089573  0.028362 -0.002209
			 0.095196  0.029299  0.001098
			 0.097902  0.029227  0.000357
			 0.095398  0.017276  0.000729
			 0.089777  0.019828  0.002824
			 0.090368  0.029324 -0.001281
			 0.090678  0.030810  0.001545
			 0.092584  0.029903  0.002825
			 0.093165  0.029570  0.002200
			 0.093689  0.029132  0.001602
			 0.085980  0.024033 -0.006448
			 0.093242  0.021802 -0.009159
			 0.094980  0.024372 -0.009192
			 0.094683  0.023091 -0.008521
			 0.098897  0.029024 -0.000021
			 0.094013  0.019984 -0.006657
			 0.093652  0.020953 -0.007983
			 0.093434  0.019628 -0.006825
			 0.084999  0.031631  0.001693
			 0.088506  0.029777 -0.000629
			 0.093762  0.014091  0.000072
			 0.093737  0.015282  0.002638
			 0.094242  0.014751  0.001078
			 0.094280  0.014969  0.002222
			 0.090418  0.015743  0.003795
			 0.089282  0.016923  0.004247
			 0.093144  0.015514  0.002788
			 0.092316  0.015820  0.002980
			 0.087828  0.020684  0.005243
			 0.090936  0.030003  0.005264
			 0.092672  0.029589  0.003329
			 0.085740  0.032936  0.006538
			 0.091116  0.030723  0.004123
			 0.089234  0.031434  0.006183
			 0.088557  0.021812 -0.006908
			 0.091302  0.021032 -0.007829
			 0.082290  0.026311 -0.004569
			 0.092315  0.020910 -0.008331
			 0.085645  0.021771 -0.005308
			 0.083994  0.022757 -0.004340
			 0.093117  0.021120 -0.008754
			 0.092958  0.020302 -0.008165
			 0.092901  0.013948 -0.002379
			 0.093073  0.013723 -0.001516
			 0.091182  0.013373 -0.003285
			 0.092566  0.017794 -0.005828
			 0.092402  0.013715 -0.002916
			 0.076996  0.027238 -0.000267
			 0.080552  0.031048  0.003834
			 0.084125  0.032484  0.006500
			 0.093876  0.014294  0.001262
			 0.093438  0.013753  0.000278
			 0.093120  0.013546 -0.000445
			 0.093953  0.014483  0.002307
			 0.093133  0.014097  0.002986
			 0.091965  0.015245  0.003213
			 0.091607  0.014770  0.003299
			 0.090205  0.014043  0.002815
			 0.089618  0.015430  0.003672
			 0.088533  0.016189  0.004249
			 0.084445  0.017458  0.006503
			 0.087826  0.018038  0.005800
			 0.084047  0.027609  0.006423
			 0.085775  0.028439  0.006888
			 0.089009  0.030981  0.006691
			 0.091123  0.030457  0.004747
			 0.087074  0.031703  0.007208
			 0.085249  0.032284  0.007448
			 0.092169  0.020122 -0.007757
			 0.082728  0.022291 -0.002417
			 0.080104  0.023487 -0.001025
			 0.087152  0.015608  0.001243
			 0.085888  0.015633  0.002579
			 0.084701  0.015704  0.003692
			 0.090544  0.015703 -0.003104
			 0.081843  0.016694  0.004863
			 0.091669  0.013084 -0.002652
			 0.092676  0.013506 -0.001981
			 0.092780  0.013355 -0.001175
			 0.091016  0.012586 -0.002315
			 0.089834  0.013823 -0.002491
			 0.076318  0.027136  0.001040
			 0.077986  0.024331  0.000418
			 0.077761  0.024407  0.001375
			 0.080173  0.030834  0.004317
			 0.077545  0.028881  0.003131
			 0.081444  0.031500  0.005053
			 0.082500  0.031699  0.006048
			 0.083855  0.032048  0.006786
			 0.092039  0.012982  0.001651
			 0.091487  0.012741 -0.002207
			 0.088382  0.014427  0.002289
			 0.088695  0.014609  0.002702
			 0.089162  0.014880  0.003403
			 0.083801  0.016256  0.004457
			 0.087315  0.015004  0.002864
			 0.081017  0.017361  0.006338
			 0.082411  0.019457  0.007841
			 0.083629  0.019026  0.007627
			 0.077450  0.025455  0.003713
			 0.079659  0.027960  0.004538
			 0.079799  0.029252  0.004568
			 0.077845  0.023213  0.002152
			 0.078952  0.020923  0.004926
			 0.079459  0.018059  0.006246
			 0.079106  0.019213  0.005683
			 0.087177  0.015128  0.001818
			 0.088553  0.014723 -0.000626
			 0.085966  0.015262  0.003096
			 0.090021  0.012555 -0.001511
			 0.090621  0.012482 -0.001816
			 0.089203  0.013509 -0.000997
			 0.077178  0.024306  0.002561
			 0.076870  0.024771  0.003236
			 0.077660  0.026661  0.003284
			 0.077587  0.027809  0.003181
			 0.077880  0.023238  0.002959
			 0.079930  0.030445  0.004590
			 0.078579  0.028507  0.003874
			 0.088117  0.014275  0.001878
			 0.088024  0.014064  0.001354
			 0.089379  0.012959 -0.000870
			 0.087200  0.014791  0.002406
			 0.081146  0.017868  0.006670
			 0.077304  0.024212  0.004162
			 0.079384  0.019666  0.006231
			 0.079661  0.018698  0.006158
			 0.078340  0.021342  0.005447
		</DataArray>
	</Points>
			<Polys>
				<DataArray type="Int32" Name="connectivity" format="ascii">
					2 1 0 
					3 2 0 
					1 4 0 
					3 0 5 
					0 7 6 
					0 4 7 
					0 6 5 
					1 2 8 
					4 1 9 
					11 1 10 
					1 11 9 
					10 1 8 
					12 8 2 
					2 5 13 
					12 2 13 
					5 2 3 
					14 4 9 
					16 15 4 
					14 16 4 
					4 15 7 
					13 5 17 
					17 5 6 
					6 7 17 
					7 15 17 
					12 18 8 
					10 8 18 
					9 11 19 
					9 20 14 
					9 22 21 
					9 19 22 
					21 20 9 
					10 23 11 
					10 18 23 
					11 23 24 
					24 25 11 
					26 11 25 
					27 11 26 
					11 27 19 
					28 18 12 
					12 29 28 
					12 30 29 
					12 13 30 
					30 13 31 
					31 13 17 
					32 16 14 
					20 32 14 
					15 16 21 
					17 15 21 
					16 32 21 
					33 17 21 
					31 17 34 
					33 35 17 
					35 34 17 
					28 36 18 
					37 18 36 
					18 37 23 
					19 27 22 
					21 32 20 
					21 38 33 
					22 39 21 
					41 40 21 
					21 40 38 
					21 39 41 
					43 42 22 
					45 44 22 
					22 47 46 
					22 42 45 
					46 43 22 
					27 48 22 
					22 48 47 
					22 44 39 
					37 24 23 
					24 37 36 
					24 36 49 
					24 51 50 
					24 50 25 
					49 51 24 
					25 48 26 
					48 25 50 
					26 48 27 
					28 53 52 
					36 28 54 
					28 29 55 
					53 28 55 
					28 52 56 
					28 56 57 
					28 57 54 
					29 30 58 
					55 29 58 
					58 30 59 
					30 34 59 
					30 31 34 
					61 60 33 
					63 33 62 
					33 63 35 
					60 64 33 
					38 61 33 
					64 62 33 
					63 59 34 
					35 63 34 
					36 54 65 
					36 65 66 
					67 36 66 
					49 36 67 
					69 38 68 
					38 69 70 
					61 38 70 
					68 38 40 
					72 71 39 
					72 39 44 
					71 41 39 
					68 40 41 
					41 71 68 
					42 74 73 
					75 74 42 
					76 75 42 
					42 73 45 
					76 42 43 
					43 77 76 
					43 79 78 
					77 43 78 
					79 43 46 
					72 44 45 
					73 72 45 
					46 80 79 
					81 46 47 
					46 81 80 
					51 82 47 
					83 47 48 
					83 51 47 
					47 82 81 
					83 48 50 
					49 85 84 
					67 85 49 
					84 51 49 
					83 50 51 
					82 51 84 
					52 86 56 
					52 53 86 
					53 55 86 
					87 54 57 
					87 88 54 
					54 88 65 
					86 55 58 
					90 56 89 
					90 91 56 
					92 56 86 
					89 56 92 
					87 57 56 
					91 93 56 
					93 87 56 
					86 58 59 
					63 86 59 
					94 64 60 
					95 94 60 
					95 60 61 
					95 61 96 
					61 70 96 
					97 62 94 
					92 63 62 
					97 98 62 
					94 62 64 
					92 62 98 
					63 92 86 
					66 65 99 
					100 65 88 
					100 101 65 
					101 99 65 
					66 103 102 
					99 103 66 
					104 67 66 
					66 102 104 
					105 67 104 
					67 105 106 
					67 106 85 
					68 71 69 
					107 70 69 
					107 69 71 
					108 96 70 
					107 108 70 
					72 107 71 
					107 72 75 
					72 74 75 
					73 74 72 
					110 109 75 
					111 110 75 
					107 75 109 
					76 111 75 
					76 77 111 
					77 78 111 
					78 110 111 
					78 93 112 
					113 78 91 
					93 78 114 
					116 115 78 
					78 115 114 
					78 113 109 
					110 78 109 
					91 78 112 
					78 79 116 
					79 80 116 
					80 117 115 
					80 81 106 
					80 119 118 
					117 80 118 
					80 106 119 
					115 116 80 
					85 106 81 
					84 85 81 
					82 84 81 
					121 120 87 
					93 122 87 
					122 123 87 
					87 120 88 
					87 123 121 
					120 100 88 
					89 124 90 
					124 89 125 
					92 125 89 
					90 126 91 
					90 124 126 
					112 93 91 
					113 91 126 
					98 125 92 
					93 114 122 
					108 94 95 
					94 108 97 
					95 96 108 
					97 127 98 
					108 128 97 
					97 128 127 
					125 98 129 
					129 98 127 
					101 130 99 
					130 131 99 
					117 132 99 
					131 117 99 
					133 99 132 
					133 103 99 
					100 120 101 
					134 130 101 
					120 134 101 
					102 103 135 
					104 102 135 
					103 133 136 
					135 103 136 
					104 135 105 
					105 135 119 
					105 119 106 
					108 107 127 
					107 109 127 
					108 127 128 
					138 109 137 
					139 109 138 
					127 109 139 
					109 113 137 
					140 138 113 
					113 138 137 
					113 126 140 
					115 141 114 
					141 122 114 
					117 142 115 
					144 115 143 
					115 144 141 
					145 115 142 
					143 115 145 
					142 117 131 
					117 118 132 
					119 136 118 
					136 132 118 
					119 135 136 
					134 120 121 
					143 145 121 
					145 134 121 
					123 143 121 
					123 122 144 
					144 122 141 
					144 143 123 
					140 124 125 
					124 140 126 
					140 125 138 
					138 125 129 
					139 129 127 
					138 129 139 
					134 142 130 
					130 142 131 
					136 133 132 
					142 134 145 
				</DataArray>
				<DataArray type="Int32" Name="offsets" format="ascii">
					3 6 9 12 15 18 21 24 27 30 33 36 39 42 45 48 51 54 57 60 63 66 69 72 75 78 81 84 87 90 93 96 99 102 105 108 111 114 117 120 123 126 129 132 135 138 141 144 147 150 153 156 159 162 165 168 171 174 177 180 183 186 189 192 195 198 201 204 207 210 213 216 219 222 225 228 231 234 237 240 243 246 249 252 255 258 261 264 267 270 273 276 279 282 285 288 291 294 297 300 303 306 309 312 315 318 321 324 327 330 333 336 339 342 345 348 351 354 357 360 363 366 369 372 375 378 381 384 387 390 393 396 399 402 405 408 411 414 417 420 423 426 429 432 435 438 441 444 447 450 453 456 459 462 465 468 471 474 477 480 483 486 489 492 495 498 501 504 507 510 513 516 519 522 525 528 531 534 537 540 543 546 549 552 555 558 561 564 567 570 573 576 579 582 585 588 591 594 597 600 603 606 609 612 615 618 621 624 627 630 633 636 639 642 645 648 651 654 657 660 663 666 669 672 675 678 681 684 687 690 693 696 699 702 705 708 711 714 717 720 723 726 729 732 735 738 741 744 747 750 753 756 759 762 765 768 771 774 777 780 783 786 789 792 795 798 801 804 807 810 813 816 819 822 825 828 831 834 837 840 843 846 849 852 855 858 861 864 
				</DataArray>
			</Polys>
		</Piece>
	</PolyData>
</VTKFile>
