<?xml version="1.0"?>
<VTKFile type="PolyData" version="0.1" byte_order="LittleEndian" compressor="vtkZLibDataCompressor">
	<PolyData>
		<Piece NumberOfPoints="2771" NumberOfVerts="0" NumberOfLines="0" NumberOfStrips="0" NumberOfPolys="5446">
		<PointData Normals="Normals">
		<DataArray type="Float32" Name="Normals" NumberOfComponents="3" format="ascii">
			 0.987667  0.151235  0.040521
			 0.622831 -0.649576  0.436041
			 0.332908 -0.530908 -0.779301
			 0.671050  0.674583  0.307621
			 0.663092  0.041999  0.747359
			 0.747551  0.553415 -0.367286
			 0.324162 -0.592725  0.737289
			-0.529533 -0.106446 -0.841584
			-0.042132  0.433245 -0.900291
			-0.472540 -0.878703  0.067730
			-0.023847  0.888271 -0.458699
			-0.253177  0.462313 -0.849805
			 0.420884  0.892963 -0.159604
			 0.505627  0.020400  0.862511
			 0.325694 -0.412785  0.850607
			-0.730314  0.021576 -0.682770
			-0.491299 -0.865503  0.097617
			-0.565498 -0.049177 -0.823282
			-0.384494 -0.229709 -0.894091
			-0.171152  0.278089 -0.945184
			 0.464193  0.884751  0.041720
			 0.377451  0.120927  0.918100
			 0.171422 -0.337909  0.925436
			-0.407110 -0.907443  0.103965
			-0.416820 -0.905734  0.076853
			-0.293742 -0.261769 -0.919343
			-0.010211  0.344296 -0.938806
			 0.438005  0.896299  0.069280
			 0.258131  0.204251  0.944272
			 0.014357 -0.299107  0.954112
			 0.085759  0.134724  0.987165
			-0.274769 -0.426839 -0.861574
			-0.181268 -0.335812 -0.924323
			 0.153817  0.369461 -0.916427
			 0.432240  0.890052  0.144831
			 0.101669  0.163110  0.981355
			 0.016117  0.243988  0.969644
			-0.436128 -0.745314  0.504281
			-0.030506 -0.339657 -0.940055
			 0.283859  0.382002 -0.879487
			 0.408293  0.898720  0.159997
			 0.409138  0.907497  0.095166
			-0.124622  0.293703  0.947738
			-0.460617 -0.831075  0.311684
			 0.113377 -0.365830 -0.923750
			 0.399467  0.403737 -0.823057
			 0.545065  0.465090 -0.697564
			 0.100586  0.852403  0.513119
			-0.351115  0.271748  0.896031
			-0.525949 -0.397424  0.751952
			-0.193329 -0.938504 -0.286065
			 0.349097 -0.221212 -0.910602
			 0.542151 -0.195486 -0.817225
			 0.637027  0.593448 -0.491951
			-0.468912  0.408659  0.783020
			-0.468767  0.383414  0.795771
			-0.602983 -0.590500  0.536396
			-0.021332 -0.892683 -0.450179
			-0.215864 -0.954180 -0.207227
			 0.721444 -0.184036 -0.667570
			 0.393115  0.824110  0.407803
			-0.347266  0.707912  0.615034
			-0.609379  0.384594  0.693358
			-0.781319 -0.107703  0.614768
			-0.950017 -0.188427  0.248923
			 0.039384 -0.851612 -0.522691
			 0.870793 -0.227039 -0.436088
			 0.914201  0.403160 -0.041203
			 0.202744  0.894434  0.398601
			-0.802182  0.343867  0.488118
			-0.799100  0.539850  0.264577
			-0.957301 -0.241183 -0.159389
			-0.007112 -0.894969 -0.446071
			 0.870306 -0.446419 -0.208034
			 0.996224  0.082677  0.026484
			 0.428873  0.798387  0.422666
			 0.406003  0.839072  0.362105
			-0.836422  0.547065 -0.033442
			-0.934665 -0.201938 -0.292613
			-0.142851 -0.926600 -0.347858
			 0.883449 -0.456113  0.107141
			 0.980312  0.001357  0.197449
			 0.852605  0.110456  0.510749
			 0.077876  0.973275  0.216034
			-0.826980  0.416052 -0.378159
			-0.833520 -0.168964 -0.526018
			 0.048778 -0.997475 -0.051623
			 0.874015 -0.077470  0.479683
			 0.974299 -0.215411  0.065869
			 0.847941  0.369942 -0.379656
			-0.327053  0.563661 -0.758500
			-0.406062  0.303087 -0.862120
			-0.245445 -0.222074 -0.943631
			 0.632625 -0.770262 -0.080512
			 0.968427  0.137093  0.208219
			 0.531533 -0.602640  0.595229
			 0.553659 -0.709107 -0.436610
			 0.599163  0.148798  0.786678
			 0.737721  0.509472 -0.442950
			 0.685705  0.355809  0.634987
			 0.293972 -0.499095  0.815159
			-0.379566  0.170166 -0.909381
			-0.503472 -0.854314  0.129085
			 0.533141  0.315609  0.784953
			 0.430381  0.862120 -0.267435
			-0.241319  0.657157 -0.714080
			-0.102707  0.643553 -0.758479
			-0.086187  0.415215 -0.905631
			 0.269229 -0.334040  0.903290
			-0.572997  0.174179 -0.800835
			-0.555613 -0.828614  0.068502
			 0.400876  0.387420  0.830183
			 0.399709  0.855063 -0.330301
			-0.054499  0.276669 -0.959419
			-0.407346  0.048831 -0.911968
			-0.276315 -0.059251 -0.959239
			 0.084026 -0.307445  0.947849
			-0.530143 -0.847898  0.004070
			 0.311591  0.494682  0.811296
			 0.413535  0.804717 -0.425934
			 0.059991  0.241721 -0.968490
			-0.145199 -0.188161 -0.971346
			-0.998120  0.039144  0.047151
			 0.121227  0.077664  0.989582
			 0.126425  0.379974  0.916317
			 0.440470  0.625674 -0.643831
			 0.040031 -0.045773 -0.998150
			-0.010918 -0.164745 -0.986276
			 0.103598  0.784161 -0.611849
			 0.108490  0.369923  0.922706
			 0.000477  0.291073  0.956701
			 0.449698  0.806176 -0.384516
			 0.128117 -0.050216 -0.990487
			 0.051616 -0.173472 -0.983485
			-0.362314 -0.902792  0.231722
			 0.026152  0.281304  0.959262
			-0.076198  0.310036  0.947666
			 0.397480  0.908771  0.127059
			 0.242501 -0.021723 -0.969908
			 0.124394 -0.265075 -0.956170
			-0.513523 -0.824069  0.239175
			-0.116459  0.148389  0.982048
			-0.305054  0.215746  0.927575
			 0.176756  0.917163  0.357169
			 0.468429  0.296124 -0.832397
			 0.269893 -0.420285 -0.866325
			-0.400817 -0.805585  0.436323
			-0.201296  0.323551  0.924551
			-0.394891  0.395169  0.829399
			 0.080005  0.945393  0.315960
			 0.587573  0.456849 -0.667867
			 0.475059 -0.309714 -0.823648
			-0.392975 -0.906704  0.153162
			-0.444856  0.203124  0.872264
			-0.610434  0.311973  0.728041
			-0.064356  0.915125  0.398002
			 0.703856  0.521919 -0.481859
			 0.680397 -0.227413 -0.696666
			-0.151520 -0.974352 -0.166376
			-0.670943 -0.061228  0.738977
			-0.850183  0.168967  0.498637
			-0.471909  0.740580  0.478375
			 0.659852  0.750783 -0.030319
			 0.893105 -0.078646 -0.442920
			 0.069752 -0.923116 -0.378142
			-0.847747 -0.338314  0.408497
			-0.979538  0.123499  0.158911
			-0.497420  0.804996  0.323348
			 0.624899  0.746598  0.228239
			 0.969204 -0.188589 -0.158360
			 0.299304 -0.851230 -0.431074
			-0.843085 -0.532322 -0.076422
			-0.994589  0.082290 -0.063416
			-0.224815  0.935784  0.271600
			 0.706141  0.637314  0.308538
			 0.924396 -0.379859  0.034623
			 0.364845 -0.879770 -0.304782
			-0.532585 -0.771172 -0.348778
			-0.888151 -0.239497 -0.392211
			-0.407260  0.903379 -0.134333
			 0.719513  0.537421  0.439863
			 0.862136 -0.322452  0.390828
			 0.065334 -0.980284 -0.186479
			-0.320850 -0.848309 -0.421220
			-0.690138 -0.277023 -0.668557
			 0.059714  0.635703 -0.769621
			 0.650281  0.759684 -0.003701
			 0.923921  0.029406  0.381453
			 0.065978 -0.848073 -0.525756
			-0.533121 -0.732309 -0.423681
			 0.410959 -0.909382  0.064315
			 0.291704 -0.105785 -0.950641
			 0.711829  0.631959 -0.306476
			 0.148766 -0.027240  0.988497
			-0.222547 -0.939251  0.261306
			 0.547890  0.063510  0.834136
			 0.102661  0.605494 -0.789200
			 0.213851  0.721997 -0.658018
			-0.276532 -0.325538 -0.904188
			 0.192191  0.840352 -0.506825
			 0.330478  0.901011  0.281003
			 0.429993  0.900403 -0.066181
			 0.124996  0.029162  0.991729
			-0.293573 -0.828729  0.476469
			 0.014599  0.534154 -0.845261
			-0.369731 -0.558424 -0.742605
			 0.060264  0.398456 -0.915206
			 0.218843  0.632538 -0.742970
			 0.265062  0.471187 -0.841264
			 0.468402  0.875508 -0.118680
			 0.090689  0.163562  0.982356
			-0.375476 -0.718813  0.585086
			-0.328015 -0.618913 -0.713689
			 0.180617  0.329703 -0.926646
			 0.270767  0.300054 -0.914687
			 0.282677  0.376760 -0.882126
			 0.497933  0.808560 -0.313516
			-0.003489  0.184220  0.982879
			-0.415753 -0.663569  0.621953
			-0.266294 -0.697094 -0.665693
			-0.211365 -0.682334 -0.699818
			 0.364741  0.349271 -0.863118
			 0.304979  0.230264 -0.924103
			 0.548573  0.780106 -0.300835
			-0.108257  0.161471  0.980922
			-0.468818 -0.628185  0.620962
			-0.508898 -0.618401  0.598835
			-0.108163 -0.696213 -0.709639
			 0.452418  0.317586 -0.833341
			 0.403055  0.218452 -0.888721
			 0.536262  0.829977 -0.153500
			-0.157930  0.247385  0.955960
			-0.223692  0.346959  0.910814
			-0.577162 -0.589917  0.564696
			-0.083602 -0.741389 -0.665848
			 0.559231  0.296563 -0.774152
			 0.555447  0.317364 -0.768609
			 0.504391  0.863404 -0.011109
			 0.510232  0.859183  0.038308
			-0.322913  0.439018  0.838445
			-0.683840 -0.538323  0.492516
			-0.017068 -0.775515 -0.631099
			 0.673011  0.225451 -0.704434
			 0.691103  0.415513 -0.591376
			 0.780702  0.406449 -0.474662
			 0.444002  0.884224  0.144952
			-0.406716  0.472804  0.781689
			-0.736903 -0.547862  0.396006
			 0.139067 -0.790556 -0.596391
			 0.779834  0.228282 -0.582877
			 0.918229  0.242586 -0.313063
			 0.839245  0.522370 -0.150991
			 0.645046  0.753804  0.125283
			-0.776510  0.036175  0.629066
			-0.811594 -0.563193  0.155337
			 0.170308 -0.723850 -0.668608
			 0.293135 -0.695862 -0.655628
			 0.991029  0.015424 -0.132757
			 0.856190  0.478025  0.196040
			 0.561720  0.720382  0.406841
			-0.813755  0.396643  0.424825
			-0.864648 -0.460459 -0.200899
			-0.850112 -0.406948 -0.334221
			-0.051392 -0.792205 -0.608087
			 0.916183 -0.352335 -0.190966
			 0.851087  0.374397  0.368074
			 0.285922  0.789362  0.543282
			-0.858649  0.459636  0.226841
			-0.940262  0.340430  0.003897
			-0.766762 -0.539863 -0.347310
			-0.289223 -0.788588 -0.542659
			 0.794093 -0.607503 -0.018867
			 0.758215  0.390969  0.521779
			 0.079795  0.859109  0.505534
			-0.135198  0.984284  0.113606
			-0.658718 -0.215360 -0.720910
			-0.273032 -0.659530 -0.700338
			-0.385020 -0.600334 -0.700970
			 0.795096 -0.459251  0.396120
			 0.686282  0.320982  0.652677
			 0.825227  0.547413  0.139067
			-0.115604  0.057304 -0.991641
			-0.325634 -0.323887 -0.888290
			-0.394023 -0.176098 -0.902073
			 0.410542 -0.579235 -0.704232
			 0.523719 -0.369385  0.767641
			 0.405816 -0.792785 -0.454759
			 0.616776  0.637069 -0.462310
			 0.023468 -0.776745  0.629378
			 0.574643  0.803302  0.156497
			 0.257124 -0.102069  0.960973
			 0.051586  0.285415 -0.957015
			 0.309954  0.665435 -0.679061
			-0.566839 -0.582315 -0.582755
			-0.259874 -0.783166  0.564903
			 0.078324  0.629639 -0.772930
			 0.453427  0.555052  0.697367
			 0.124819  0.471414 -0.873035
			 0.211112  0.047325  0.976316
			-0.148592  0.431406 -0.889837
			-0.508345 -0.560043 -0.654169
			-0.324773 -0.723920  0.608656
			-0.018610  0.366126 -0.930379
			 0.373542  0.454743  0.808502
			 0.195687  0.422641 -0.884919
			 0.081356  0.294187 -0.952279
			 0.116902  0.150039  0.981745
			-0.393604 -0.627780 -0.671541
			-0.330394 -0.664422  0.670360
			 0.495601  0.739114 -0.456169
			 0.200720  0.209236 -0.957043
			 0.174425  0.237536 -0.955590
			-0.253795 -0.619110 -0.743163
			 0.196237  0.473012  0.858924
			-0.360007 -0.621611  0.695697
			 0.481338  0.702373 -0.524391
			 0.313796  0.204335 -0.927243
			 0.269030  0.102038 -0.957711
			-0.185248 -0.684640 -0.704948
			-0.460927 -0.679934  0.570294
			 0.167564  0.639727  0.750114
			 0.505082  0.659616 -0.556595
			 0.408463  0.280660 -0.868555
			 0.351714  0.117455 -0.928710
			-0.205987 -0.820979 -0.532505
			-0.497309 -0.572524  0.651844
			 0.066389  0.630020  0.773736
			 0.533372  0.684342 -0.497182
			 0.470604  0.252981 -0.845301
			 0.447020  0.121201 -0.886275
			-0.129777 -0.818157 -0.560157
			-0.543220 -0.553391  0.631403
			-0.087937  0.597353  0.797143
			 0.578416  0.674841 -0.458285
			 0.585972  0.235152 -0.775462
			 0.572679  0.197521 -0.795628
			 0.061975 -0.786137 -0.614937
			-0.615450 -0.571840  0.542421
			-0.236669  0.675873  0.697985
			 0.579198  0.763941 -0.284471
			 0.731500  0.247852 -0.635199
			 0.719416  0.204658 -0.663744
			 0.248220 -0.722620 -0.645141
			-0.653242 -0.668648  0.355226
			-0.402595  0.580222  0.707997
			 0.683355  0.723944 -0.094505
			 0.772862  0.568968 -0.280996
			 0.855463  0.168005 -0.489855
			 0.304563 -0.703884 -0.641707
			-0.715590 -0.684840  0.137571
			-0.690926  0.146855  0.707853
			 0.719381  0.651044  0.242140
			 0.890748  0.447213  0.081044
			 0.973912  0.067028 -0.216800
			 0.309766 -0.679697 -0.664873
			-0.821664 -0.541289 -0.178534
			-0.821905  0.337374  0.458966
			 0.101039  0.867201  0.487599
			 0.866109  0.404624  0.293486
			 0.995190 -0.094100  0.027255
			 0.507832 -0.715757 -0.479374
			-0.749832 -0.531246 -0.394372
			-0.990781  0.135460  0.001878
			-0.058248  0.894578  0.443100
			 0.804643  0.403781  0.435328
			 0.954312 -0.263043  0.141763
			 0.580395 -0.768785 -0.268537
			-0.506707 -0.741915 -0.439101
			-0.987906  0.102497 -0.116347
			-0.155685  0.929402  0.334625
			 0.752817  0.267631  0.601365
			 0.799014 -0.413140  0.436912
			 0.508489 -0.860484 -0.031719
			-0.262349 -0.837567 -0.479222
			-0.857536 -0.135463 -0.496268
			 0.448075  0.744650 -0.494697
			 0.717738  0.185257  0.671217
			 0.807607 -0.460908  0.367879
			 0.542428 -0.635391  0.549590
			-0.003698 -0.418836 -0.908054
			-0.556232  0.083379 -0.826834
			-0.141713 -0.637797  0.757055
			 0.306798 -0.926060  0.219745
			 0.682889 -0.057018  0.728294
			 0.345626  0.341895  0.873871
			-0.275347 -0.553561  0.785973
			 0.820485  0.092184 -0.564187
			 0.127528 -0.923024 -0.362991
			-0.409436 -0.851368 -0.327924
			 0.483714  0.711355 -0.509897
			 0.431678  0.726614 -0.534496
			 0.198267  0.424072  0.883659
			-0.335372 -0.465138  0.819251
			-0.432594 -0.776671 -0.457869
			-0.522738 -0.732693 -0.435781
			 0.497387  0.670803 -0.550118
			-0.565474 -0.810942 -0.150372
			 0.148303  0.397710  0.905446
			-0.366331 -0.425544  0.827475
			-0.523051 -0.816030 -0.245994
			 0.600091  0.668629 -0.439119
			-0.572484 -0.808127 -0.138537
			-0.593145 -0.800070  0.089820
			-0.474658 -0.382437  0.792743
			 0.039163  0.440770  0.896765
			 0.609509  0.652209 -0.450690
			-0.483997 -0.872908 -0.061465
			-0.549444 -0.832959  0.065506
			-0.592551 -0.342774  0.728965
			 0.003200  0.591843  0.806047
			 0.673691  0.503497 -0.540954
			-0.514871 -0.847095 -0.131677
			-0.561085 -0.822719  0.091198
			-0.610729 -0.262629  0.747018
			-0.027849  0.636489  0.770783
			 0.752965  0.529421 -0.390842
			-0.399722 -0.804679 -0.438991
			-0.502325 -0.823725 -0.262960
			-0.697295 -0.189718  0.691222
			-0.114844  0.598114  0.793140
			 0.823995  0.542009 -0.165102
			-0.285836 -0.826267 -0.485367
			-0.318157 -0.810980 -0.491008
			-0.829278 -0.204368  0.520127
			-0.316690  0.569317  0.758674
			 0.763109  0.637446  0.106430
			-0.209530 -0.836474 -0.506368
			-0.324612 -0.844581 -0.425806
			-0.944089 -0.230070  0.236142
			-0.660742  0.476087  0.580312
			 0.645476  0.703216  0.298074
			-0.091321 -0.880784 -0.464630
			-0.261088 -0.871771 -0.414547
			-0.979884 -0.196666  0.033908
			-0.749647  0.541258  0.380878
			 0.577072  0.707191  0.408496
			 0.007491 -0.891503 -0.452952
			-0.138592 -0.877069 -0.459937
			-0.975413 -0.199473 -0.093698
			-0.787765  0.547654  0.281961
			 0.646324  0.571023  0.506160
			 0.374335 -0.818453 -0.435899
			 0.153095 -0.876148 -0.457084
			-0.977723 -0.077174 -0.195197
			-0.654748  0.680905  0.328138
			 0.533484  0.510571  0.674323
			 0.273319 -0.846832 -0.456258
			 0.443244 -0.783953 -0.434687
			-0.883113 -0.002295 -0.469154
			-0.752732  0.643871 -0.137205
			 0.386577  0.535138  0.751123
			 0.070800 -0.986673 -0.146508
			 0.097045 -0.906803 -0.410233
			-0.759481  0.095372 -0.643501
			-0.529991  0.784565 -0.321820
			 0.266249  0.546616  0.793928
			 0.073176 -0.987424  0.140140
			 0.128496 -0.981672 -0.140741
			-0.756476 -0.192158 -0.625155
			-0.413537  0.873272 -0.257650
			 0.265165 -0.963117  0.045763
			 0.870979  0.219557 -0.439533
			 0.828275  0.042260 -0.558726
			 0.420545 -0.710248 -0.564526
			 0.279251 -0.502192 -0.818426
			 0.887116  0.422169 -0.186545
			-0.958449 -0.130824 -0.253497
			-0.400038 -0.799962  0.447247
			 0.522262  0.718685  0.459058
			-0.788841 -0.537891  0.297326
			-0.839475 -0.539048  0.068623
			 0.283350 -0.559883 -0.778616
			 0.925433  0.329013 -0.187947
			-0.645021 -0.021010  0.763876
			-0.156521  0.551155  0.819591
			-0.771267  0.005272  0.636489
			-0.835394  0.069529  0.545236
			-0.864890 -0.501670 -0.017091
			 0.295988 -0.663157 -0.687469
			 0.952928  0.300317 -0.041678
			-0.363841  0.567117  0.738917
			-0.436342  0.652262  0.619806
			-0.886268  0.172193  0.429974
			-0.874588 -0.445390 -0.191635
			 0.343693 -0.681633 -0.645950
			 0.915710  0.358129  0.182259
			 0.925025  0.259109  0.277835
			-0.304797  0.701573  0.644123
			-0.952335  0.185306  0.242321
			-0.735926 -0.549935 -0.394949
			 0.517701 -0.722214 -0.458686
			 0.491300 -0.784968 -0.377425
			 0.907663  0.174980  0.381484
			-0.269852  0.762082  0.588567
			-0.981963  0.171052  0.080554
			-0.609605 -0.659084 -0.440443
			-0.653373 -0.590299 -0.473974
			 0.485387 -0.847307 -0.215568
			 0.885467  0.073609  0.458835
			-0.088147  0.818091  0.568294
			-0.943237  0.330624 -0.031484
			-0.915873  0.398977 -0.044658
			-0.688763 -0.634566 -0.350615
			 0.410235 -0.901917 -0.135105
			 0.843437 -0.121260  0.523365
			 0.056023  0.868139  0.493149
			-0.149841  0.908049  0.391144
			-0.983003  0.168845  0.072090
			-0.484644 -0.737145 -0.470891
			 0.649383 -0.760427  0.007253
			 0.863935  0.092857  0.494969
			 0.161997  0.824749 -0.541799
			 0.892456  0.347552  0.287628
			 0.858385  0.067713 -0.508517
			-0.882211 -0.134790 -0.451149
			 0.032352  0.506075 -0.861882
			-0.823510 -0.274168 -0.496651
			 0.120837  0.758900 -0.639898
			 0.886696  0.419150  0.195151
			 0.163741 -0.760217  0.628696
			 0.478111 -0.841782  0.250623
			-0.407877 -0.627844 -0.662909
			 0.126683 -0.746003  0.653782
			-0.067348 -0.725895  0.684501
			-0.723985 -0.442992 -0.528775
			 0.138832  0.698242 -0.702270
			 0.863635  0.390785  0.318469
			 0.734461  0.419176  0.533722
			-0.173271 -0.659075  0.731845
			-0.698127 -0.449345 -0.557412
			 0.169556  0.741132 -0.649595
			 0.268033  0.707363 -0.654061
			 0.604154  0.490683  0.627877
			-0.275290 -0.559890  0.781498
			-0.781232 -0.215788 -0.585757
			-0.642927 -0.197327 -0.740072
			 0.336381  0.629878 -0.700073
			 0.420862  0.664181  0.617850
			-0.472560 -0.372930  0.798505
			-0.521483 -0.450559  0.724604
			-0.470551 -0.658484 -0.587350
			 0.282120  0.332425 -0.899946
			 0.248702  0.771399  0.585739
			 0.171019  0.824789  0.538958
			-0.529088 -0.367532  0.764844
			-0.372942 -0.862569 -0.341891
			 0.407928  0.135799 -0.902858
			 0.646851 -0.035797 -0.761776
			 0.237932  0.802295  0.547459
			-0.593376 -0.232142  0.770723
			-0.314060 -0.911921 -0.264132
			-0.202893 -0.923043 -0.326844
			 0.838967 -0.077938 -0.538571
			 0.177783  0.877111  0.446171
			-0.649120 -0.305112  0.696814
			-0.760603 -0.441307  0.476163
			-0.060697 -0.974299 -0.216928
			 0.865429 -0.076697 -0.495126
			-0.127143  0.910479  0.393525
			-0.575132  0.797854  0.180699
			-0.804542 -0.469425 -0.363802
			-0.046173 -0.959600 -0.277555
			 0.919037  0.021291 -0.393596
			 0.837123 -0.496841  0.228853
			 0.076115  0.913475 -0.399712
			-0.875116  0.033360 -0.482762
			-0.063244 -0.997531  0.030518
			-0.142702 -0.822152  0.551092
			 0.958573 -0.230600  0.167214
			 0.120454  0.932274 -0.341109
			-0.998207  0.051940  0.029754
			-0.956137 -0.179141 -0.231754
			-0.133914 -0.937659  0.320721
			 0.390516 -0.000697 -0.920596
			-0.339337  0.760483 -0.553638
			-0.723364 -0.687723 -0.061504
			-0.784897 -0.379479 -0.489829
			-0.118288 -0.960958 -0.250135
			-0.554761 -0.830071 -0.056767
			 0.730613 -0.494790  0.470519
			-0.332748  0.788362 -0.517459
			-0.301287  0.861158 -0.409429
			-0.008974  0.307982 -0.951350
			 0.969470  0.242438  0.036777
			-0.383510 -0.922714 -0.038968
			 0.701286 -0.360600  0.614952
			-0.314310  0.781196 -0.539390
			 0.898061  0.401834  0.178927
			 0.679103  0.620511  0.392154
			 0.785855  0.547701  0.287152
			-0.213682 -0.968149  0.130490
			 0.659190 -0.134647  0.739824
			-0.226965  0.738147 -0.635315
			 0.569667  0.653893  0.497899
			 0.566151  0.085212  0.819885
			-0.175915 -0.953297  0.245516
			-0.068043  0.612030 -0.787902
			 0.560254  0.657247  0.504124
			 0.521064  0.054674  0.851765
			-0.306169 -0.915570  0.260754
			 0.003440  0.521509 -0.853239
			 0.560178  0.740988  0.370320
			 0.463205  0.124258  0.877497
			-0.467153 -0.788091  0.400849
			 0.139837  0.341249 -0.929513
			 0.523013  0.798269  0.298704
			 0.245582  0.487926  0.837626
			-0.722524 -0.547693  0.421889
			 0.312402  0.082640 -0.946349
			 0.494318  0.845285  0.202838
			 0.049951  0.635869  0.770179
			-0.734247 -0.582564  0.348569
			 0.471365 -0.082982 -0.878026
			 0.529116  0.827011  0.189971
			-0.068282  0.636741  0.768049
			-0.798327 -0.539465  0.267678
			 0.529149 -0.348312 -0.773744
			 0.564287  0.816051  0.125061
			-0.177950  0.744632  0.643317
			-0.841929 -0.516854  0.154974
			 0.649244 -0.511488 -0.562905
			 0.669882  0.738376  0.077842
			-0.295297  0.806231  0.512632
			-0.822571 -0.559946  0.099183
			 0.810070 -0.469855 -0.350746
			 0.590851  0.805926  0.037115
			-0.460542  0.828425  0.318769
			-0.634143 -0.758574  0.149763
			 0.891708 -0.393575 -0.223507
			 0.328234  0.871203 -0.365057
			-0.496748  0.864136 -0.080690
			 0.167510 -0.893181  0.417335
			 0.910589  0.314838  0.267776
			-0.091372  0.927597 -0.362236
			-0.821799  0.369614 -0.433626
			-0.342948 -0.761372 -0.550181
			 0.596360 -0.787513 -0.155495
			-0.065525  0.688805 -0.721979
			-0.569882  0.622964 -0.535864
			 0.921276  0.260863  0.288446
			 0.852671 -0.267234  0.448930
			 0.781308 -0.207885 -0.588508
			 0.249917  0.946984 -0.201899
			 0.846040  0.154823 -0.510144
			 0.319499  0.911557 -0.258813
			 0.841867  0.237559  0.484589
			 0.742113 -0.206576  0.637648
			-0.212590 -0.935249  0.283046
			 0.360191 -0.890219 -0.278877
			-0.708582 -0.242147 -0.662779
			-0.585829 -0.170170 -0.792368
			-0.810943  0.435439 -0.390851
			-0.192516  0.792688 -0.578432
			-0.701445  0.325405 -0.634102
			-0.615113  0.102669 -0.781726
			 0.313795  0.925779 -0.210867
			 0.693178  0.250952  0.675668
			 0.646413 -0.125059  0.752669
			-0.379059 -0.889909  0.253723
			-0.933166 -0.166035 -0.318800
			-0.836041 -0.102968 -0.538919
			-0.713042 -0.222950 -0.664729
			-0.585424 -0.375811 -0.718363
			-0.484858  0.026960 -0.874177
			 0.260459  0.959893 -0.103757
			 0.562255  0.438356  0.701223
			 0.558250 -0.027765  0.829208
			-0.347823 -0.921824  0.171053
			-0.298529 -0.938411  0.173972
			-0.350461 -0.892626  0.283542
			-0.438652 -0.696322 -0.568085
			-0.327991 -0.030716 -0.944181
			 0.233508  0.957186 -0.171083
			 0.458628  0.596404  0.658759
			 0.406850  0.093567  0.908691
			 0.106203  0.200530  0.973914
			-0.254132 -0.517211  0.817258
			-0.393483 -0.919316  0.005307
			-0.108240  0.021129 -0.993900
			 0.319574  0.930198 -0.180564
			 0.297924  0.674717  0.675276
			 0.102728  0.712739  0.693867
			-0.119664  0.283831  0.951378
			-0.232608 -0.001570  0.972569
			-0.455982 -0.834521  0.309281
			 0.125948 -0.123635 -0.984302
			 0.409891  0.856549 -0.313548
			 0.509198  0.817035 -0.270503
			 0.033766  0.724810  0.688121
			-0.233942  0.383435  0.893448
			-0.449530  0.040576  0.892343
			-0.579036 -0.808373  0.106071
			 0.253946 -0.227581 -0.940063
			 0.431269 -0.253856 -0.865774
			 0.614921  0.778761 -0.124114
			-0.098586  0.706936  0.700373
			-0.400017  0.392468  0.828224
			-0.566838  0.115009  0.815762
			-0.692731 -0.707276  0.141013
			-0.308759 -0.857395 -0.411755
			 0.589877 -0.322627 -0.740241
			 0.612568  0.789749  0.032515
			-0.142058  0.760869  0.633165
			-0.409148  0.517260  0.751692
			-0.685399  0.160671  0.710221
			-0.909377  0.115256  0.399688
			 0.165296 -0.863079 -0.477254
			 0.716750 -0.471491 -0.513776
			 0.692917  0.716724  0.078568
			-0.116280  0.860619  0.495795
			-0.658602  0.527466  0.536677
			-0.827479  0.520591  0.210389
			-0.881270 -0.437997 -0.177544
			 0.027392 -0.949795 -0.311672
			 0.823459 -0.544200 -0.160503
			 0.777568  0.598740  0.192090
			-0.261297  0.909172  0.324238
			-0.487249  0.860601 -0.148173
			-0.691546  0.705596 -0.154592
			-0.920844 -0.029347 -0.388826
			-0.097476 -0.995187 -0.010106
			 0.887940 -0.392514  0.239782
			 0.715729  0.646366  0.264466
			 0.444843  0.895572  0.008068
			-0.523306  0.666217 -0.531324
			-0.538967  0.688224 -0.485657
			-0.896942 -0.261380 -0.356615
			 0.130610 -0.936061  0.326697
			 0.741781 -0.355229  0.568835
			 0.960923 -0.052104  0.271870
			-0.027731  0.580515 -0.813777
			-0.369775  0.736784 -0.566053
			-0.515110  0.525658 -0.677012
			-0.618089 -0.289190 -0.730982
			 0.306601 -0.910996 -0.275831
			 0.826024  0.297133  0.478953
			 0.723523 -0.259638  0.639611
			 0.885407 -0.159783 -0.436490
			 0.375660  0.921671 -0.096965
			 0.921901  0.364370  0.131659
			 0.398989  0.907237 -0.133152
			 0.746168  0.264946  0.610768
			 0.571084 -0.313250  0.758774
			-0.342824 -0.916413  0.206542
			 0.325295 -0.945403 -0.019926
			-0.524432 -0.235911 -0.818118
			-0.357977  0.055205 -0.932097
			 0.416183  0.611677 -0.672788
			-0.618960  0.457779 -0.638222
			-0.553657  0.392016 -0.734703
			-0.384787  0.353009 -0.852832
			 0.389016  0.921171 -0.010564
			 0.569902  0.228681  0.789251
			 0.384373 -0.354545  0.852382
			-0.395064 -0.906903  0.146463
			-0.840507 -0.238836 -0.486318
			-0.729926 -0.350074 -0.587075
			-0.586783 -0.365890 -0.722365
			-0.407291 -0.300310 -0.862513
			-0.205977  0.334444 -0.919631
			 0.377817  0.915646  0.137287
			 0.397205  0.231770  0.887981
			 0.176959 -0.380594  0.907653
			-0.304583 -0.943912  0.127516
			-0.337048 -0.937186  0.089900
			-0.333133 -0.938074 -0.095081
			-0.190082 -0.271530 -0.943473
			 0.028843  0.466671 -0.883961
			 0.303171  0.870563  0.387567
			 0.150234  0.199992  0.968211
			-0.022186 -0.301819  0.953107
			-0.271399 -0.433564  0.859282
			-0.328963 -0.899930 -0.286197
			 0.024798 -0.265989 -0.963657
			 0.245778  0.535314 -0.808104
			 0.251792  0.887870  0.385081
			-0.021114  0.232996  0.972248
			-0.245705  0.156700  0.956595
			-0.409423 -0.312174  0.857275
			-0.303939 -0.940526 -0.151762
			 0.208084 -0.299882 -0.931006
			 0.406913  0.573523 -0.710981
			 0.172563  0.873864  0.454514
			 0.077945  0.853626  0.515022
			-0.408617  0.146771  0.900828
			-0.528096 -0.326884  0.783748
			-0.279969 -0.939121 -0.199173
			 0.358792 -0.317441 -0.877781
			 0.546857  0.564729 -0.618085
			 0.602074  0.642010 -0.474690
			-0.100189  0.808547  0.579839
			-0.522720  0.179184  0.833461
			-0.629100 -0.245121  0.737664
			-0.301478 -0.948781 -0.094480
			 0.505142 -0.265310 -0.821244
			 0.649388 -0.271110 -0.710489
			 0.661087  0.679987 -0.317146
			-0.248751  0.804257  0.539716
			-0.648216  0.300268  0.699753
			-0.759369 -0.203223  0.618109
			-0.258060 -0.947179 -0.190415
			-0.149533 -0.938510 -0.311190
			 0.800065 -0.347161 -0.489259
			 0.657859  0.748833 -0.080437
			-0.321539  0.862483  0.390814
			-0.813892  0.276315  0.511107
			-0.914693 -0.091442  0.393669
			-0.990773 -0.135362 -0.006823
			-0.074758 -0.926409 -0.369022
			 0.818434 -0.518678 -0.247263
			 0.618442  0.765736  0.176571
			-0.283115  0.914445  0.289198
			-0.930320  0.331897  0.156042
			-0.750298  0.661098  0.001566
			-0.957640 -0.006861 -0.287885
			-0.512862 -0.753377 -0.411577
			 0.670901 -0.735445 -0.094936
			 0.711061  0.608788  0.351810
			-0.046570  0.961534  0.270708
			 0.259735  0.912893  0.314905
			-0.554138  0.799024 -0.233435
			-0.760881  0.555422 -0.335510
			-0.822514 -0.214628 -0.526694
			 0.453125 -0.816519  0.357736
			 0.793506  0.292808  0.533491
			 0.785451  0.618098 -0.031970
			 0.041696  0.966464 -0.253396
			-0.292879  0.505925 -0.811333
			-0.615004  0.543188 -0.571592
			-0.621459 -0.326380 -0.712225
			 0.951088 -0.242932 -0.190830
			 0.703923  0.227646  0.672807
			 0.557856 -0.466990  0.686088
			 0.954897 -0.095586 -0.281132
			 0.644378  0.651314  0.400707
			 0.912593  0.322678  0.251103
			 0.272640  0.962068  0.009625
			 0.557239  0.339761  0.757659
			 0.491884 -0.251400  0.833576
			-0.501397 -0.864781  0.027476
			 0.419292 -0.848980 -0.321602
			-0.336633  0.169511 -0.926253
			-0.144952  0.461621 -0.875154
			 0.746654  0.606925 -0.272304
			-0.206085  0.852628 -0.480160
			-0.296034  0.548187 -0.782212
			-0.217815  0.524886 -0.822831
			 0.336882  0.938985  0.069406
			 0.487512  0.386278  0.783021
			 0.350473 -0.205451  0.913761
			-0.385435 -0.914487  0.123095
			-0.760980  0.043828 -0.647293
			-0.558252 -0.022611 -0.829364
			-0.441400 -0.040411 -0.896400
			-0.326750 -0.059481 -0.943237
			-0.010755  0.535696 -0.844343
			 0.407990  0.912987  0.000457
			 0.406614  0.408113  0.817379
			 0.144252 -0.268567  0.952399
			-0.397348 -0.917562  0.013990
			-0.500328 -0.849014 -0.169845
			-0.469685 -0.841030 -0.268448
			-0.121571 -0.107339 -0.986762
			 0.159328  0.428623 -0.889324
			 0.457569  0.883303 -0.102015
			 0.306792  0.474113  0.825285
			-0.124194 -0.394658  0.910396
			-0.300992 -0.373246  0.877548
			-0.410350 -0.888442 -0.205631
			 0.074968 -0.146900 -0.986306
			 0.326790  0.403216 -0.854766