<?xml version="1.0"?>
<VTKFile type="PolyData" version="0.1" byte_order="LittleEndian" compressor="vtkZLibDataCompressor">
	<PolyData>
		<Piece NumberOfPoints="174" NumberOfVerts="0" NumberOfLines="0" NumberOfStrips="0" NumberOfPolys="344">
		<PointData Normals="Normals">
		<DataArray type="Float32" Name="Normals" NumberOfComponents="3" format="ascii">
			 0.205404 -0.346957 -0.915112
			-0.104106 -0.371560 -0.922554
			-0.345373 -0.347945 -0.871580
			 0.149711 -0.379634 -0.912943
			 0.483780 -0.168887 -0.858739
			 0.843052  0.041639 -0.536218
			-0.540282 -0.388178 -0.746601
			 0.229793 -0.088627 -0.969196
			-0.145374 -0.355661 -0.923240
			-0.374222 -0.468679 -0.800186
			-0.387765 -0.406675 -0.827197
			-0.767234 -0.253097 -0.589317
			 0.344682 -0.538057 -0.769213
			-0.220414 -0.551398 -0.804598
			 0.626094 -0.265710 -0.733079
			 0.768343  0.494704 -0.406100
			 0.867162  0.406835 -0.287255
			 0.929410 -0.081040 -0.360040
			 0.822314  0.470663  0.319806
			 0.910303  0.052106  0.410650
			 0.992712 -0.094009  0.075395
			-0.824139 -0.176786 -0.538091
			-0.394741 -0.688723 -0.608145
			-0.739509 -0.548556 -0.390143
			 0.286896 -0.315723 -0.904439
			 0.453710 -0.102674 -0.885215
			 0.651686  0.258313 -0.713148
			-0.101195 -0.589844 -0.801152
			-0.631969 -0.474387 -0.612840
			-0.924398 -0.205016 -0.321647
			-0.945313 -0.141145 -0.294042
			-0.956040 -0.042361 -0.290159
			-0.070814 -0.757296 -0.649222
			 0.380622 -0.724062 -0.575205
			 0.784680 -0.475625 -0.397565
			-0.439595 -0.650124 -0.619754
			 0.677089  0.681661  0.277287
			 0.490941  0.800007  0.344915
			 0.775332  0.617123 -0.134238
			 0.426548  0.636535  0.642558
			 0.496083  0.232420  0.836590
			 0.759336 -0.021334  0.650349
			 0.925304 -0.167767  0.340097
			 0.922880 -0.383470 -0.035268
			-0.978511  0.058222 -0.197804
			-0.982208 -0.164646 -0.090327
			 0.135914 -0.981923  0.131740
			-0.142195 -0.914247  0.379385
			-0.454483 -0.692797  0.559891
			-0.738215 -0.326944  0.590040
			 0.737550 -0.501461 -0.452280
			 0.909288 -0.249864 -0.332812
			 0.886112  0.052581 -0.460479
			 0.614516 -0.788035  0.037016
			-0.833342 -0.530672 -0.154690
			-0.565127 -0.762629 -0.314686
			-0.962125 -0.088295  0.257912
			-0.990878 -0.066558 -0.117178
			-0.950592  0.107843  0.291111
			-0.667073  0.583312  0.463422
			-0.917062  0.394223 -0.059879
			-0.330840 -0.857420 -0.394177
			 0.137169 -0.891841 -0.431051
			 0.399584 -0.808557 -0.431936
			 0.689875 -0.661198 -0.294771
			 0.915603 -0.358138  0.182779
			 0.793190  0.542116  0.277415
			 0.424178  0.551257  0.718463
			 0.450178  0.388317  0.804083
			 0.546820  0.086326  0.832788
			 0.042082 -0.060969  0.997252
			 0.287014  0.439320  0.851247
			-0.067037  0.061887  0.995829
			 0.837907 -0.080771  0.539804
			 0.600869  0.207647  0.771906
			 0.742069  0.067494  0.666917
			-0.836082 -0.003400  0.548595
			-0.741084  0.413090  0.529293
			 0.590207 -0.390909  0.706291
			 0.370659 -0.352728  0.859183
			 0.133888 -0.234015  0.962970
			-0.007786  0.059725  0.998185
			 0.862546 -0.177679  0.473756
			 0.837301  0.164890  0.521285
			-0.632430 -0.767537 -0.104493
			-0.909023 -0.333494  0.249917
			-0.748465 -0.637312  0.183397
			-0.705857 -0.707026 -0.043347
			-0.606762 -0.593045 -0.529279
			-0.415045 -0.817209 -0.399885
			-0.657537  0.003230  0.753416
			-0.676648 -0.176314  0.714885
			-0.260554  0.608619  0.749463
			-0.561324  0.335212  0.756669
			 0.241962  0.603114  0.760071
			 0.361999  0.662501  0.655781
			-0.184812  0.804332  0.564707
			-0.132116 -0.799152 -0.586431
			 0.281477 -0.837917 -0.467617
			 0.531478 -0.484467 -0.694855
			 0.659308 -0.474097 -0.583562
			 0.903119 -0.091725 -0.419480
			 0.988272  0.059154  0.140778
			 0.168083  0.510216  0.843462
			-0.076932  0.290637  0.953735
			 0.470479  0.043846  0.881321
			 0.260782  0.109297  0.959191
			-0.446916 -0.296113  0.844147
			-0.249483 -0.338130  0.907428
			-0.300958  0.200617  0.932297
			 0.703996  0.292725  0.647072
			 0.715357  0.048782  0.697054
			 0.235480  0.775716  0.585503
			 0.323939  0.359703  0.875030
			 0.376424  0.294375  0.878435
			-0.792910 -0.598507  0.114376
			-0.836451 -0.525994  0.153882
			-0.867228 -0.450623  0.211787
			-0.801164 -0.598442 -0.001853
			-0.925885  0.347080 -0.149240
			-0.744973  0.320618 -0.584995
			-0.592134 -0.311846 -0.743054
			-0.376690  0.218798 -0.900129
			-0.300014 -0.411125 -0.860795
			-0.742328 -0.537230  0.400416
			 0.193996 -0.508181 -0.839117
			 0.053142 -0.111406 -0.992353
			 0.609332  0.385302 -0.693006
			 0.352829  0.230867 -0.906759
			 0.698273  0.543621 -0.465716
			 0.846971  0.505190  0.165600
			-0.005992  0.104325  0.994525
			-0.558567 -0.620333  0.550627
			-0.547411 -0.388409  0.741269
			-0.303577 -0.122780  0.944863
			 0.607374  0.747325  0.269449
			 0.251372  0.966742 -0.047147
			-0.119427  0.552700  0.824779
			-0.456678  0.768727  0.447776
			-0.255868  0.898107 -0.357681
			-0.073366  0.976085 -0.204634
			-0.704115 -0.707071  0.065365
			-0.931345  0.363267 -0.025176
			-0.941598 -0.324737  0.089098
			-0.683027  0.725776 -0.081994
			-0.946579 -0.319622  0.042783
			 0.246282  0.959089  0.139618
			-0.004078  0.989529 -0.144279
			-0.298141  0.826093 -0.478207
			 0.149888  0.738871 -0.656965
			 0.146313  0.881693 -0.448564
			-0.015603  0.853182 -0.521380
			 0.517292  0.812416 -0.269052
			-0.328219  0.264526  0.906807
			-0.731659 -0.592109  0.337760
			-0.872781 -0.072789  0.482655
			-0.560436  0.172102  0.810119
			 0.043205  0.913841 -0.403766
			-0.235437  0.797364 -0.555679
			-0.327738  0.735043 -0.593548
			-0.282473  0.563348 -0.776433
			-0.762290  0.380158  0.523826
			-0.382182  0.638645 -0.667884
			-0.194486  0.961671 -0.193298
			 0.153498  0.981789 -0.111931
			 0.018592  0.994888 -0.099253
			-0.259776  0.851221 -0.456004
			 0.074294  0.987240 -0.140846
			-0.101001  0.948527 -0.300157
			-0.172020  0.838828 -0.516505
			-0.070070  0.975870 -0.206805
			-0.258258  0.957742 -0.126626
			-0.144753  0.939084 -0.311717
			 0.098718  0.909600 -0.403586
		</DataArray>
	</PointData>
	<Points>
		<DataArray type="Float32" NumberOfComponents="3" format="ascii">
			 0.027920 -0.101946 -0.051043
			 0.026316 -0.106382 -0.049673
			 0.025451 -0.101773 -0.050942
			 0.027705 -0.101070 -0.051429
			 0.029192 -0.102332 -0.050326
			 0.028633 -0.101229 -0.050980
			 0.024799 -0.108247 -0.047788
			 0.029192 -0.103025 -0.050270
			 0.027045 -0.108637 -0.048432
			 0.026014 -0.109576 -0.047623
			 0.024755 -0.099559 -0.051584
			 0.023682 -0.101505 -0.049606
			 0.027938 -0.097404 -0.053164
			 0.025620 -0.097628 -0.052933
			 0.028121 -0.100314 -0.051427
			 0.029645 -0.102324 -0.049898
			 0.029040 -0.101621 -0.050531
			 0.028464 -0.100255 -0.051052
			 0.028586 -0.100972 -0.049943
			 0.028288 -0.099939 -0.049806
			 0.028477 -0.100015 -0.050491
			 0.023510 -0.104471 -0.048229
			 0.025824 -0.110735 -0.046712
			 0.023785 -0.109766 -0.046153
			 0.029206 -0.106076 -0.049564
			 0.029672 -0.103325 -0.050122
			 0.029920 -0.102912 -0.049955
			 0.027517 -0.110166 -0.048081
			 0.024792 -0.097531 -0.052647
			 0.022824 -0.097632 -0.049331
			 0.022943 -0.099586 -0.048996
			 0.022933 -0.101953 -0.047359
			 0.026743 -0.095520 -0.055213
			 0.027382 -0.095423 -0.055107
			 0.029064 -0.096641 -0.052735
			 0.024598 -0.095133 -0.054405
			 0.028979 -0.101732 -0.049817
			 0.029567 -0.102375 -0.048955
			 0.029975 -0.102588 -0.049430
			 0.028632 -0.102113 -0.048872
			 0.026543 -0.101888 -0.047540
			 0.028791 -0.095703 -0.050528
			 0.029013 -0.096854 -0.050868
			 0.029304 -0.096396 -0.052088
			 0.022481 -0.102246 -0.046406
			 0.022394 -0.105426 -0.045982
			 0.026933 -0.111572 -0.045811
			 0.025959 -0.111438 -0.045320
			 0.024366 -0.110644 -0.044611
			 0.023970 -0.110009 -0.044498
			 0.029454 -0.109990 -0.047418
			 0.030022 -0.107532 -0.048229
			 0.030356 -0.103416 -0.049561
			 0.028526 -0.111218 -0.046709
			 0.022159 -0.094927 -0.051124
			 0.021338 -0.093441 -0.052917
			 0.022794 -0.097659 -0.048761
			 0.022830 -0.098707 -0.048899
			 0.022846 -0.099534 -0.048442
			 0.022894 -0.100903 -0.046984
			 0.022726 -0.101354 -0.046614
			 0.025022 -0.094366 -0.056073
			 0.027526 -0.094861 -0.056065
			 0.028638 -0.094163 -0.056062
			 0.030628 -0.093972 -0.054888
			 0.030724 -0.093992 -0.053056
			 0.030198 -0.102846 -0.048937
			 0.029744 -0.102903 -0.048458
			 0.026779 -0.104608 -0.046292
			 0.026286 -0.094085 -0.048465
			 0.024230 -0.094074 -0.047579
			 0.024737 -0.100811 -0.047252
			 0.024932 -0.099497 -0.047566
			 0.030717 -0.093136 -0.052567
			 0.029464 -0.091726 -0.051393
			 0.030189 -0.092938 -0.051808
			 0.022668 -0.105213 -0.044837
			 0.022512 -0.101761 -0.045896
			 0.028394 -0.110991 -0.046259
			 0.026710 -0.110792 -0.045208
			 0.024845 -0.109526 -0.044239
			 0.024002 -0.107615 -0.044022
			 0.029740 -0.108724 -0.046972
			 0.030444 -0.104302 -0.048393
			 0.021053 -0.093473 -0.051935
			 0.022145 -0.094789 -0.049621
			 0.020501 -0.092987 -0.051417
			 0.019641 -0.092606 -0.052612
			 0.021318 -0.092303 -0.056279
			 0.024287 -0.093765 -0.057219
			 0.023219 -0.098473 -0.048258
			 0.023415 -0.097091 -0.047721
			 0.023276 -0.099818 -0.047412
			 0.023314 -0.098985 -0.048139
			 0.024000 -0.100504 -0.046970
			 0.023812 -0.101777 -0.045909
			 0.023056 -0.101288 -0.046010
			 0.026167 -0.094267 -0.057636
			 0.027114 -0.094424 -0.057383
			 0.029624 -0.093124 -0.057162
			 0.030301 -0.093507 -0.056230
			 0.031188 -0.092923 -0.055571
			 0.031316 -0.092176 -0.053689
			 0.023398 -0.101964 -0.045502
			 0.023363 -0.103714 -0.044718
			 0.026995 -0.109055 -0.045002
			 0.023665 -0.091626 -0.047176
			 0.022460 -0.093861 -0.047784
			 0.022139 -0.093072 -0.047617
			 0.023843 -0.099092 -0.047850
			 0.030376 -0.091301 -0.052097
			 0.030222 -0.092198 -0.052041
			 0.023355 -0.089300 -0.048267
			 0.023567 -0.090186 -0.047641
			 0.023498 -0.090917 -0.047514
			 0.021656 -0.093522 -0.049579
			 0.019533 -0.092056 -0.051870
			 0.019053 -0.091139 -0.051318
			 0.019770 -0.091929 -0.050222
			 0.018875 -0.090734 -0.053415
			 0.019915 -0.090701 -0.055809
			 0.020961 -0.091237 -0.056647
			 0.022187 -0.090894 -0.057510
			 0.024952 -0.093186 -0.058348
			 0.021965 -0.093831 -0.048287
			 0.027494 -0.093705 -0.058125
			 0.026181 -0.092517 -0.058502
			 0.030378 -0.092709 -0.056512
			 0.027649 -0.092853 -0.058285
			 0.030762 -0.091799 -0.055310
			 0.030550 -0.090913 -0.052838
			 0.022692 -0.091499 -0.047169
			 0.021571 -0.093113 -0.048024
			 0.020201 -0.091942 -0.047845
			 0.020923 -0.091707 -0.047475
			 0.030102 -0.090363 -0.052892
			 0.027926 -0.089509 -0.051657
			 0.021888 -0.089825 -0.047701
			 0.020296 -0.089766 -0.048597
			 0.022704 -0.089217 -0.048949
			 0.025057 -0.088958 -0.050196
			 0.019781 -0.092236 -0.049259
			 0.018776 -0.090817 -0.052340
			 0.019414 -0.091213 -0.050253
			 0.019381 -0.090515 -0.049408
			 0.019391 -0.091595 -0.049131
			 0.022529 -0.091355 -0.056907
			 0.019440 -0.090868 -0.053587
			 0.020911 -0.090743 -0.056727
			 0.024810 -0.091846 -0.058402
			 0.027561 -0.092240 -0.058043
			 0.029427 -0.091397 -0.054714
			 0.030390 -0.090536 -0.053651
			 0.020868 -0.090929 -0.047514
			 0.019826 -0.092119 -0.048468
			 0.019548 -0.091405 -0.048352
			 0.020045 -0.091214 -0.047877
			 0.029722 -0.090139 -0.053128
			 0.027255 -0.090847 -0.052434
			 0.026362 -0.089166 -0.051050
			 0.026067 -0.090046 -0.051576
			 0.019653 -0.090652 -0.048506
			 0.024626 -0.090577 -0.050771
			 0.019291 -0.090567 -0.052759
			 0.019995 -0.090737 -0.052975
			 0.023671 -0.091559 -0.053237
			 0.024694 -0.090976 -0.051511
			 0.024236 -0.091572 -0.053978
			 0.025941 -0.091542 -0.053593
			 0.025993 -0.090982 -0.052231
			 0.024773 -0.091315 -0.053203
			 0.024508 -0.091452 -0.052767
			 0.025179 -0.091088 -0.052529
			 0.025249 -0.091493 -0.053228
		</DataArray>
	</Points>
			<Polys>
				<DataArray type="Int32" Name="connectivity" format="ascii">
					0 1 2 
					2 3 0 
					1 0 4 
					0 5 4 
					5 0 3 
					1 6 2 
					1 4 7 
					8 9 1 
					1 7 8 
					9 6 1 
					10 3 2 
					10 2 11 
					2 6 11 
					12 3 13 
					3 10 13 
					14 5 3 
					14 3 12 
					4 15 7 
					15 4 16 
					4 5 16 
					17 5 14 
					16 5 18 
					18 5 19 
					5 17 20 
					19 5 20 
					6 21 11 
					22 6 9 
					6 22 23 
					6 23 21 
					24 8 7 
					24 7 25 
					7 26 25 
					7 15 26 
					9 8 27 
					8 24 27 
					27 22 9 
					13 10 28 
					11 28 10 
					28 11 29 
					11 30 29 
					31 11 21 
					11 31 30 
					12 13 32 
					32 33 12 
					12 33 34 
					14 12 34 
					13 28 35 
					32 13 35 
					14 34 17 
					36 15 16 
					37 15 36 
					15 37 38 
					15 38 26 
					16 18 36 
					20 17 34 
					18 39 36 
					39 18 40 
					19 40 18 
					41 19 42 
					40 19 41 
					20 42 19 
					43 20 34 
					42 20 43 
					44 21 45 
					23 45 21 
					21 44 31 
					22 27 46 
					22 47 23 
					47 22 46 
					48 23 47 
					23 48 49 
					23 49 45 
					50 24 51 
					51 24 52 
					52 24 25 
					27 24 50 
					26 52 25 
					26 38 52 
					53 46 27 
					53 27 50 
					54 55 28 
					28 55 35 
					54 28 29 
					56 29 57 
					57 29 30 
					54 29 56 
					58 30 31 
					57 30 58 
					58 31 59 
					31 44 60 
					59 31 60 
					35 61 32 
					33 32 62 
					61 62 32 
					63 33 62 
					64 33 63 
					64 34 33 
					65 34 64 
					65 43 34 
					35 55 61 
					37 36 39 
					37 66 38 
					37 67 66 
					37 39 67 
					38 66 52 
					39 68 67 
					39 40 68 
					69 70 40 
					40 41 69 
					68 40 71 
					40 70 72 
					71 40 72 
					41 42 65 
					73 41 65 
					41 74 69 
					74 41 75 
					73 75 41 
					42 43 65 
					45 76 44 
					77 60 44 
					76 77 44 
					45 49 76 
					46 78 79 
					46 53 78 
					79 47 46 
					47 79 80 
					48 47 80 
					80 49 48 
					49 81 76 
					81 49 80 
					50 51 82 
					53 50 82 
					83 51 52 
					83 82 51 
					83 52 66 
					78 53 82 
					55 54 84 
					54 56 85 
					84 54 86 
					86 54 85 
					87 88 55 
					55 84 87 
					55 88 89 
					61 55 89 
					57 58 56 
					90 56 58 
					91 85 56 
					90 91 56 
					58 59 92 
					93 90 58 
					92 93 58 
					94 92 59 
					95 94 59 
					59 60 96 
					95 59 96 
					96 60 77 
					61 97 62 
					61 89 97 
					98 63 62 
					97 98 62 
					63 99 100 
					99 63 98 
					63 100 64 
					101 64 100 
					64 102 65 
					102 64 101 
					73 65 102 
					67 83 66 
					68 83 67 
					94 68 71 
					95 68 94 
					95 103 68 
					104 81 68 
					81 105 68 
					83 68 105 
					68 103 104 
					70 69 106 
					106 69 74 
					91 70 107 
					91 72 70 
					107 70 108 
					106 108 70 
					109 92 71 
					94 71 92 
					71 72 109 
					72 91 109 
					110 73 102 
					73 110 111 
					73 111 75 
					110 74 111 
					74 112 113 
					74 113 114 
					106 74 114 
					110 112 74 
					111 74 75 
					81 104 76 
					76 104 77 
					104 103 77 
					96 77 103 
					78 105 79 
					82 105 78 
					79 105 80 
					105 81 80 
					105 82 83 
					87 84 86 
					115 86 85 
					91 115 85 
					86 116 87 
					117 86 118 
					86 117 116 
					118 86 115 
					88 87 119 
					119 87 116 
					88 120 121 
					119 120 88 
					121 122 88 
					123 88 122 
					89 88 123 
					97 89 123 
					109 90 93 
					90 109 91 
					124 91 107 
					91 124 115 
					92 109 93 
					95 96 103 
					125 97 126 
					126 97 123 
					98 97 125 
					99 98 125 
					127 100 99 
					99 128 127 
					125 128 99 
					129 101 100 
					127 129 100 
					129 102 101 
					102 129 130 
					130 110 102 
					108 106 131 
					114 131 106 
					132 107 108 
					132 124 107 
					108 133 132 
					134 108 131 
					134 133 108 
					110 130 135 
					136 110 135 
					110 136 112 
					112 137 113 
					137 112 138 
					138 112 139 
					112 140 139 
					140 112 136 
					131 113 137 
					114 113 131 
					118 115 141 
					124 141 115 
					142 119 116 
					142 116 117 
					118 143 117 
					117 144 142 
					144 117 143 
					141 145 118 
					118 145 143 
					120 119 146 
					146 119 147 
					147 119 142 
					121 120 148 
					148 120 146 
					121 148 122 
					149 123 122 
					122 148 146 
					122 146 149 
					126 123 149 
					141 124 132 
					128 125 126 
					128 126 149 
					128 150 127 
					151 129 127 
					150 151 127 
					128 149 150 
					129 151 152 
					130 129 152 
					130 152 135 
					134 131 153 
					153 131 137 
					154 141 132 
					154 132 133 
					133 155 154 
					155 133 156 
					133 134 156 
					156 134 153 
					157 135 152 
					136 135 157 
					136 157 158 
					140 136 159 
					160 159 136 
					136 158 160 
					153 137 138 
					144 161 138 
					138 139 144 
					161 156 138 
					156 153 138 
					139 162 144 
					162 139 140 
					162 140 159 
					154 145 141 
					142 163 147 
					163 142 144 
					145 144 143 
					155 144 145 
					144 155 161 
					144 164 163 
					165 164 144 
					165 144 166 
					166 144 162 
					154 155 145 
					146 147 164 
					165 146 164 
					167 149 146 
					146 165 167 
					163 164 147 
					167 150 149 
					150 168 158 
					158 151 150 
					150 167 168 
					152 151 157 
					158 157 151 
					161 155 156 
					158 168 169 
					169 160 158 
					166 162 159 
					166 159 160 
					166 160 169 
					170 167 165 
					170 165 171 
					171 165 166 
					172 171 166 
					172 166 169 
					167 173 168 
					167 170 173 
					172 168 173 
					172 169 168 
					172 173 170 
					172 170 171 
				</DataArray>
				<DataArray type="Int32" Name="offsets" format="ascii">
					3 6 9 12 15 18 21 24 27 30 33 36 39 42 45 48 51 54 57 60 63 66 69 72 75 78 81 84 87 90 93 96 99 102 105 108 111 114 117 120 123 126 129 132 135 138 141 144 147 150 153 156 159 162 165 168 171 174 177 180 183 186 189 192 195 198 201 204 207 210 213 216 219 222 225 228 231 234 237 240 243 246 249 252 255 258 261 264 267 270 273 276 279 282 285 288 291 294 297 300 303 306 309 312 315 318 321 324 327 330 333 336 339 342 345 348 351 354 357 360 363 366 369 372 375 378 381 384 387 390 393 396 399 402 405 408 411 414 417 420 423 426 429 432 435 438 441 444 447 450 453 456 459 462 465 468 471 474 477 480 483 486 489 492 495 498 501 504 507 510 513 516 519 522 525 528 531 534 537 540 543 546 549 552 555 558 561 564 567 570 573 576 579 582 585 588 591 594 597 600 603 606 609 612 615 618 621 624 627 630 633 636 639 642 645 648 651 654 657 660 663 666 669 672 675 678 681 684 687 690 693 696 699 702 705 708 711 714 717 720 723 726 729 732 735 738 741 744 747 750 753 756 759 762 765 768 771 774 777 780 783 786 789 792 795 798 801 804 807 810 813 816 819 822 825 828 831 834 837 840 843 846 849 852 855 858 861 864 867 870 873 876 879 882 885 888 891 894 897 900 903 906 909 912 915 918 921 924 927 930 933 936 939 942 945 948 951 954 957 960 963 966 969 972 975 978 981 984 987 990 993 996 999 1002 1005 1008 1011 1014 1017 1020 1023 1026 1029 1032 
				</DataArray>
			</Polys>
		</Piece>
	</PolyData>
</VTKFile>
