<?xml version="1.0"?>
<VTKFile type="PolyData" version="0.1" byte_order="LittleEndian" compressor="vtkZLibDataCompressor">
	<PolyData>
		<Piece NumberOfPoints="1769" NumberOfVerts="0" NumberOfLines="0" NumberOfStrips="0" NumberOfPolys="3534">
		<PointData Normals="Normals">
		<DataArray type="Float32" Name="Normals" NumberOfComponents="3" format="ascii">
			 0.695450 -0.679430 -0.233932
			 0.634395 -0.761511 -0.132834
			 0.709637 -0.618462 -0.337519
			 0.587283 -0.784691 -0.198390
			 0.542280 -0.823379 -0.167271
			 0.420228 -0.868786 -0.261952
			 0.648727 -0.706451 -0.282984
			 0.527114 -0.844783  0.092152
			 0.593148 -0.805091 -0.001841
			 0.747480 -0.650455 -0.134841
			 0.696104 -0.610952 -0.377063
			 0.767071 -0.608818 -0.202344
			 0.331196 -0.933472 -0.137622
			 0.335534 -0.941324  0.036428
			 0.600084 -0.798868  0.041337
			 0.589026 -0.803701 -0.084343
			 0.193162 -0.858635 -0.474799
			 0.618485 -0.669552 -0.411310
			 0.333267 -0.747671 -0.574387
			 0.078726 -0.963416 -0.256188
			 0.781016 -0.622797  0.046241
			 0.809998 -0.574454 -0.117927
			 0.712652 -0.692209 -0.113899
			 0.762798 -0.644981  0.046249
			 0.832728 -0.534366  0.144970
			 0.804295 -0.549939  0.225115
			 0.884382 -0.449836  0.124564
			 0.079616 -0.995661 -0.048161
			 0.426621 -0.881769  0.201194
			 0.075563 -0.994649  0.070456
			 0.316383 -0.901547  0.295151
			 0.637382 -0.690766  0.341449
			 0.109224 -0.745870 -0.657075
			-0.171947 -0.856119 -0.487335
			 0.780184 -0.523472 -0.342475
			 0.636632 -0.597584 -0.487436
			 0.755910 -0.497076 -0.426046
			 0.389650 -0.641774 -0.660530
			 0.144406 -0.639499 -0.755108
			-0.170437 -0.968254 -0.182853
			 0.874515 -0.423334  0.236668
			 0.911893 -0.265433  0.313043
			 0.903302 -0.395151  0.167040
			 0.911081 -0.405374 -0.074852
			 0.897783 -0.383517 -0.216563
			 0.961577 -0.252303  0.108226
			 0.843957 -0.427987  0.323362
			 0.870001 -0.357576  0.339467
			 0.509932 -0.754196  0.413713
			 0.174035 -0.922727  0.343928
			-0.106780 -0.958202  0.265420
			-0.236877 -0.970947 -0.033928
			 0.383259 -0.786990  0.483487
			 0.511691 -0.730269  0.452636
			 0.828803 -0.460300  0.318134
			-0.054837 -0.716279 -0.695655
			-0.421425 -0.793960 -0.438210
			-0.373209 -0.759093 -0.533380
			-0.318853 -0.705082 -0.633397
			-0.329988 -0.900245 -0.284020
			-0.450891 -0.807100 -0.381165
			 0.901088 -0.363180 -0.236942
			 0.835375 -0.447614 -0.319045
			 0.428892 -0.609333 -0.666907
			 0.701009 -0.468416 -0.537747
			 0.271759 -0.552847 -0.787723
			 0.226825 -0.524576 -0.820592
			-0.171572 -0.626955 -0.759928
			 0.093260 -0.549893 -0.830012
			 0.877715 -0.186128  0.441558
			 0.942397 -0.059910  0.329089
			 0.837374  0.033836  0.545583
			 0.978317 -0.171953 -0.115444
			 0.993534 -0.101855 -0.050165
			 0.994808 -0.069100  0.074712
			 0.878126 -0.336863  0.339732
			 0.817025 -0.405751  0.409679
			 0.590177 -0.693443  0.413313
			-0.038350 -0.870431  0.490794
			 0.335525 -0.750276  0.569656
			 0.140829 -0.856284  0.496936
			-0.185502 -0.870377  0.456107
			-0.328341 -0.913738  0.239321
			-0.460244 -0.880899  0.110418
			-0.359555 -0.927936 -0.098263
			 0.380132 -0.599698  0.704175
			 0.533657 -0.559822  0.633884
			 0.725208 -0.568395  0.388587
			 0.633416 -0.522726  0.570563
			-0.525663 -0.690727 -0.496564
			-0.523168 -0.595795 -0.609363
			-0.511559 -0.839935 -0.181154
			-0.639313 -0.730191 -0.241038
			 0.971625 -0.179009 -0.154601
			 0.895646 -0.265003 -0.357199
			 0.464918 -0.449790 -0.762588
			 0.811035 -0.248010 -0.529824
			 0.637301 -0.415448 -0.649038
			 0.402878 -0.342293 -0.848837
			 0.225655 -0.471695 -0.852399
			-0.098517 -0.581999 -0.807200
			 0.814042 -0.212604  0.540495
			 0.828817  0.014357  0.559335
			 0.969351  0.012598  0.245355
			 0.824302  0.094296  0.558243
			 0.782048  0.114775  0.612558
			 0.705716  0.312808  0.635701
			 0.998333 -0.000391  0.057708
			 0.990980  0.090375  0.098952
			 0.986283  0.139987 -0.087459
			 0.744672 -0.332024  0.578985
			 0.825799 -0.452697  0.336335
			 0.381784 -0.647404  0.659628
			 0.951931 -0.217311  0.215877
			 0.515103 -0.690296  0.508095
			-0.471345 -0.767940  0.433708
			-0.242628 -0.795734  0.554922
			-0.618650 -0.780492  0.090023
			 0.553082 -0.383066  0.739838
			 0.525425 -0.364385  0.768864
			 0.309291 -0.566210  0.764032
			 0.664837 -0.255943  0.701773
			-0.686293 -0.625754 -0.370720
			-0.684404 -0.479972 -0.548833
			-0.587856 -0.536029 -0.605887
			-0.352881 -0.607715 -0.711447
			-0.738729 -0.445846 -0.505471
			-0.717687 -0.696229 -0.013842
			 0.936861 -0.092589 -0.337223
			 0.629478 -0.320977 -0.707624
			 0.768591 -0.145268 -0.623028
			 0.889873 -0.033854 -0.454951
			 0.633536 -0.198658 -0.747775
			 0.377965 -0.290349 -0.879113
			 0.513781 -0.134577 -0.847300
			 0.659048 -0.109764 -0.744048
			 0.126729 -0.514353 -0.848163
			 0.273995 -0.415796 -0.867203
			 0.437951 -0.322713 -0.839080
			-0.022001 -0.541286 -0.840550
			-0.324076 -0.536838 -0.778961
			 0.779518 -0.045994  0.624689
			 0.921562  0.155365  0.355788
			 0.770016  0.322619  0.550448
			 0.755470 -0.067109  0.651737
			 0.746175  0.016890  0.665536
			 0.807866  0.221256  0.546258
			 0.735163  0.522619  0.431747
			 0.777757  0.437162  0.451645
			 0.782144  0.443911  0.437257
			 0.958545  0.156981  0.237798
			 0.937412  0.300565  0.175839
			 0.957606  0.088993 -0.273992
			 0.951366  0.307186 -0.023228
			 0.863897  0.451707  0.222806
			 0.150459 -0.704843  0.693223
			-0.068854 -0.759580  0.646760
			-0.310702 -0.640362  0.702425
			-0.628582 -0.747573  0.214522
			-0.432449 -0.550192  0.714336
			-0.668665 -0.677249  0.306955
			-0.531098 -0.626661  0.570291
			-0.214470 -0.734617  0.643693
			 0.655143 -0.172095  0.735644
			 0.542544 -0.269464  0.795635
			 0.386068 -0.458909  0.800221
			 0.673497 -0.119258  0.729506
			 0.154316 -0.628177  0.762614
			-0.775627 -0.601434 -0.191520
			-0.731538 -0.492735 -0.471237
			-0.720213 -0.410888 -0.558985
			-0.685451 -0.490095 -0.538483
			-0.777964 -0.427253 -0.460681
			-0.778774 -0.592179  0.206969
			 0.744897 -0.097657 -0.659994
			 0.845127  0.023648 -0.534042
			 0.952650  0.212539 -0.217449
			 0.523540 -0.163996 -0.836069
			 0.660147  0.042738 -0.749920
			 0.705911  0.051179 -0.706449
			-0.006938 -0.479170 -0.877695
			 0.078371 -0.309967 -0.947512
			 0.367420 -0.278034 -0.887524
			 0.571894 -0.165059 -0.803550
			-0.318038 -0.414915 -0.852466
			 0.870426  0.344994  0.351195
			 0.764180  0.036086  0.643993
			 0.779559  0.151956  0.607615
			 0.787665  0.431901  0.439369
			 0.750355  0.594916  0.288171
			 0.839429  0.456073  0.295560
			 0.760945  0.531007  0.372820
			 0.629538  0.580383  0.516563
			 0.659593  0.451048  0.601242
			 0.803776  0.329798  0.495154
			 0.784994  0.336541  0.520120
			 0.854870  0.458192  0.243426
			 0.888418  0.333626  0.315290
			 0.932577  0.360154  0.024283
			 0.868247  0.471533  0.154284
			-0.072852 -0.676145  0.733158
			-0.195853 -0.519508  0.831717
			-0.275623 -0.430643  0.859406
			-0.449499 -0.507204  0.735319
			-0.339300 -0.403790  0.849605
			-0.690023 -0.535608  0.486819
			-0.523189 -0.551424  0.649773
			 0.387014 -0.262263  0.883990
			 0.595163 -0.059217  0.801420
			 0.269587 -0.474777  0.837800
			 0.172636 -0.526860  0.832235
			-0.807577 -0.589696 -0.008870
			-0.800727 -0.561242 -0.209388
			-0.765914 -0.466914 -0.442003
			-0.575209 -0.380051 -0.724359
			-0.818386 -0.460866 -0.343288
			-0.733119 -0.407744 -0.544318
			-0.758965 -0.462580 -0.458248
			-0.748427 -0.379119 -0.544175
			-0.699319 -0.423810 -0.575620
			-0.660771 -0.618007  0.425969
			-0.752212 -0.610035  0.249069
			-0.697728 -0.632348  0.336616
			 0.917891  0.289785 -0.271110
			 0.850933  0.209757 -0.481576
			 0.925848  0.376190 -0.035873
			 0.684834  0.101901 -0.721539
			 0.805981  0.264470 -0.529576
			 0.756078  0.195529 -0.624591
			 0.747226  0.296256 -0.594883
			 0.120955 -0.200841 -0.972128
			-0.277469 -0.288519 -0.916388
			 0.408311 -0.151955 -0.900106
			 0.578582 -0.027432 -0.815163
			 0.671363  0.377246  0.637932
			 0.623154  0.166132  0.764251
			 0.634791  0.477620  0.607388
			 0.528745  0.584885  0.615092
			 0.768954  0.612967  0.181606
			 0.814613  0.561015  0.147198
			 0.854954  0.518700  0.002098
			 0.554041  0.469020  0.687793
			 0.380913  0.546729  0.745649
			 0.689719  0.375620  0.619030
			 0.515447  0.317511  0.795928
			 0.715567  0.323137  0.619311
			 0.683784  0.245016  0.687318
			 0.687071  0.298065  0.662639
			 0.913226  0.395868  0.096472
			 0.942603  0.333609 -0.014327
			 0.913539  0.311582  0.261464
			 0.824886  0.264163  0.499782
			 0.358032 -0.538263  0.762946
			-0.002273 -0.545720  0.837965
			-0.026695 -0.432794  0.901098
			 0.045130 -0.313289  0.948585
			-0.204968 -0.249899  0.946329
			-0.472963 -0.420614  0.774203
			-0.278554 -0.279135  0.918962
			-0.612719 -0.499328  0.612574
			 0.404044 -0.017285  0.914576
			 0.293433 -0.299801  0.907754
			 0.719371 -0.247919  0.648878
			-0.803045 -0.560711 -0.201797
			-0.792690 -0.609173 -0.023448
			-0.764912 -0.370727 -0.526756
			-0.788733 -0.496246 -0.362821
			-0.517909 -0.314963 -0.795342
			-0.788759 -0.398318 -0.468190
			-0.609346 -0.337014 -0.717718
			-0.707101 -0.496155 -0.503824
			-0.753084 -0.391377 -0.528855
			-0.702214 -0.423676 -0.572183
			-0.702119 -0.458016 -0.545206
			-0.713951 -0.373954 -0.591973
			-0.720643 -0.467819 -0.511682
			-0.722902 -0.646913  0.242725
			-0.524479 -0.536812  0.660874
			-0.465731 -0.668801  0.579483
			-0.594417 -0.628974  0.501058
			 0.888938  0.383952 -0.249741
			 0.867499  0.343205 -0.360078
			 0.725808  0.396411 -0.562193
			 0.683471  0.195556 -0.703296
			 0.878182  0.466314 -0.106525
			 0.834548  0.425306 -0.350206
			 0.778237  0.551251 -0.300780
			-0.114407 -0.243141 -0.963220
			 0.411273 -0.043098 -0.910493
			 0.002127 -0.237830 -0.971304
			-0.093737 -0.214913 -0.972124
			-0.523215 -0.248152 -0.815271
			-0.287647 -0.241604 -0.926762
			 0.429565  0.265772  0.863041
			 0.432610  0.447031  0.782951
			 0.306959  0.532601  0.788741
			 0.817338  0.542994  0.192654
			 0.780806  0.605664  0.153340
			 0.828343  0.533915  0.169654
			 0.300511  0.351642  0.886590
			 0.375804  0.434293  0.818633
			 0.466309  0.323008  0.823542
			 0.449133  0.157567  0.879461
			 0.617794  0.277269  0.735835
			 0.395512  0.196827  0.897123
			 0.672911  0.263265  0.691290
			 0.662485  0.234925  0.711284
			 0.696488  0.225739  0.681137
			 0.602167  0.217348  0.768216
			 0.907029  0.414273 -0.075342
			 0.900716  0.349050 -0.258601
			 0.912782  0.325064 -0.247309
			 0.937162  0.312129 -0.155893
			 0.946127  0.300851  0.119715
			 0.910716  0.280334  0.303331
			 0.801182  0.239316  0.548484
			 0.740991 -0.286535  0.607314
			-0.044563 -0.060165  0.997193
			 0.295471 -0.055466  0.953740
			 0.951753 -0.083548  0.295272
			-0.104263 -0.057970  0.992859
			-0.475913 -0.403237  0.781605
			-0.272541 -0.205122  0.940025
			-0.046196 -0.004733  0.998921
			-0.527132 -0.462918  0.712628
			 0.324782  0.064864  0.943562
			 0.313823 -0.162802  0.935420
			-0.810424 -0.510269 -0.287816
			-0.819953 -0.571452 -0.033474
			-0.753587 -0.426579 -0.500137
			-0.674632 -0.286277 -0.680381
			-0.604452 -0.430652 -0.670207
			-0.636120 -0.455508 -0.622787
			-0.643007 -0.554220 -0.528566
			-0.520981 -0.310074 -0.795256
			-0.752457 -0.519885 -0.404387
			-0.750524 -0.399391 -0.526499
			-0.729074 -0.409488 -0.548425
			-0.750445 -0.542892 -0.376963
			-0.801209 -0.502932  0.324228
			-0.837127 -0.503610  0.213531
			-0.343202 -0.546075  0.764208
			-0.367324 -0.345275  0.863631
			-0.327387 -0.428145  0.842324
			-0.392566 -0.545836  0.740240
			-0.714977 -0.496462  0.492274
			-0.528883 -0.405139  0.745752
			 0.755181  0.378841 -0.534959
			 0.723012  0.535371 -0.436614
			 0.684565  0.583071 -0.437492
			 0.775108  0.399723 -0.489314
			 0.622501  0.147361 -0.768620
			 0.844660  0.535277  0.005339
			 0.756413  0.639493 -0.137436
			 0.333807 -0.133621 -0.933123
			-0.336282 -0.272774 -0.901393
			 0.121208 -0.206546 -0.970900
			-0.151408 -0.260912 -0.953415
			-0.544511 -0.226795 -0.807510
			-0.601596 -0.216231 -0.768977
			-0.697974 -0.257432 -0.668253
			 0.768800  0.624422  0.137997
			 0.812509  0.582209  0.029351
			 0.359540  0.445186  0.820086
			 0.160894  0.214309  0.963423
			 0.294955  0.368066  0.881776
			 0.410046  0.311505  0.857220
			 0.421836  0.106210  0.900430
			 0.270708  0.062529  0.960629
			 0.263181  0.179005  0.947994
			 0.549557  0.165114  0.818978
			 0.681832  0.185850  0.707506
			 0.821403  0.526443 -0.219443
			 0.776386  0.472320 -0.417299
			 0.842545  0.309021 -0.441161
			 0.966919  0.255066  0.002943
			 0.942182  0.268487 -0.200517
			 0.887343  0.264296 -0.377849
			 0.936638  0.257624  0.237360
			 0.707322  0.173725  0.685212
			 0.867742  0.200623  0.454724
			 0.038677  0.114943  0.992619
			 0.132627  0.176465  0.975331
			-0.025367 -0.067355  0.997407
			 0.098981  0.126726  0.986987
			-0.869566 -0.493530 -0.016831
			-0.849483 -0.494009 -0.185296
			-0.400930 -0.396656 -0.825784
			-0.601158 -0.432901 -0.671719
			-0.638034 -0.534264 -0.554505
			-0.640835 -0.499801 -0.582692
			-0.531673 -0.545050 -0.648263
			-0.616751 -0.459875 -0.638853
			-0.413397 -0.228864 -0.881320
			-0.788581 -0.522785 -0.323784
			-0.838162 -0.378808 -0.392414
			-0.904652 -0.376060 -0.200459
			-0.873355 -0.313636 -0.372670
			-0.721102 -0.576281 -0.384594
			-0.766511 -0.584907 -0.265227
			-0.687557 -0.577581 -0.440074
			-0.845000 -0.502312 -0.183463
			-0.692787 -0.315875  0.648282
			-0.877152 -0.396572  0.270803
			-0.873160 -0.463955  0.149456
			-0.175442 -0.358505  0.916894
			-0.235225 -0.442135  0.865555
			-0.141450 -0.287280  0.947345
			-0.309669 -0.314046  0.897485
			-0.655876 -0.400119  0.640102
			-0.404905 -0.159440  0.900350
			-0.557816 -0.280298  0.781200
			 0.744960  0.628136 -0.224677
			 0.683821  0.348035 -0.641296
			 0.779837  0.522523 -0.344709
			 0.596628  0.205316 -0.775810
			 0.466304  0.049189 -0.883256
			 0.289297 -0.052307 -0.955809
			-0.256103 -0.166709 -0.952166
			-0.431190 -0.122688 -0.893881
			 0.031091 -0.110080 -0.993436
			 0.252866  0.044342 -0.966484
			-0.750723 -0.193962 -0.631501
			-0.596319 -0.044750 -0.801499
			-0.697718 -0.109973 -0.707881
			 0.204127  0.070354  0.976413
			-0.049283  0.122289  0.991270
			 0.170816  0.170831  0.970381
			 0.485315  0.081548  0.870528
			 0.332690  0.052208  0.941590
			 0.613199  0.149972  0.775562
			 0.759683  0.562997 -0.325447
			 0.634384  0.422918 -0.647069
			 0.599665  0.616657 -0.510035
			 0.720830  0.297794 -0.625878
			 0.712215  0.278562 -0.644324
			 0.745937  0.195106 -0.636798
			 0.951125  0.238524 -0.196134
			 0.976143  0.195777  0.093893
			 0.966966  0.194155 -0.165165
			 0.916616  0.263521 -0.300621
			 0.696163  0.148304 -0.702398
			 0.852160  0.162349 -0.497460
			 0.945634  0.216900  0.242346
			 0.753147  0.150974  0.640294
			 0.916245  0.178343  0.358733
			 0.095973  0.057693  0.993711
			-0.117793 -0.150738  0.981531
			-0.954451 -0.294154 -0.049969
			-0.938643 -0.278142 -0.203929
			-0.453847 -0.414731 -0.788683
			-0.249433 -0.305486 -0.918946
			-0.532375 -0.552127 -0.641664
			-0.503391 -0.519997 -0.690073
			-0.462499 -0.439251 -0.770165
			-0.100774 -0.169543 -0.980357
			-0.180089 -0.037229 -0.982946
			-0.419365  0.020019 -0.907597
			-0.933752 -0.264936 -0.240656
			-0.948998 -0.312491  0.041874
			-0.873265 -0.453964  0.176991
			-0.730933 -0.620208 -0.284745
			-0.800599 -0.594728 -0.073074
			-0.753790 -0.627456 -0.195193
			-0.698379 -0.594587 -0.398413
			-0.479113 -0.115174  0.870164
			-0.735801 -0.323637  0.594858
			-0.336577 -0.041245  0.940752
			-0.831745 -0.311669  0.459416
			-0.982786 -0.179364  0.044270
			-0.947274 -0.145555  0.285457
			-0.133801 -0.016836  0.990865
			 0.661012  0.464587 -0.589255
			 0.587062  0.319101 -0.743998
			 0.463129  0.178420 -0.868146
			-0.285116  0.073545 -0.955667
			-0.035762  0.046268 -0.998289
			 0.027826 -0.013695 -0.999519
			-0.386100  0.192600 -0.902126
			 0.161187  0.065110 -0.984774
			 0.463440  0.150376 -0.873276
			 0.514361  0.312718 -0.798524
			-0.534027  0.087433 -0.840934
			-0.113984 -0.106522  0.987755
			-0.198190 -0.062299  0.978182
			-0.371785  0.124360  0.919951
			-0.298936  0.300817  0.905619
			-0.341932  0.214866  0.914830
			-0.148433  0.142648  0.978580
			-0.307705 -0.017653  0.951318
			-0.004915  0.130959  0.991376
			 0.348454  0.014978  0.937206
			 0.414785  0.025451  0.909564
			 0.635736  0.087101  0.766976
			 0.549928  0.060048  0.833051
			 0.173882 -0.028441  0.984356
			 0.281798  0.009848  0.959423
			 0.650045  0.515296 -0.558489
			 0.525569  0.474556 -0.706098
			 0.556784  0.290987 -0.778022
			 0.538363  0.584439 -0.607121
			 0.295532  0.622124 -0.724998
			 0.429855  0.525572 -0.734165
			 0.593858  0.246249 -0.765960
			 0.503274  0.172351 -0.846765
			 0.518114  0.074416 -0.852068
			 0.526139  0.043896 -0.849265
			 0.992063  0.124897 -0.014515
			 0.979172  0.050895  0.196550
			 0.971938  0.151359  0.180076
			 0.989694  0.069180 -0.125383
			 0.944979  0.115519 -0.306055
			 0.488374  0.009284 -0.872585
			 0.633496  0.033540 -0.773019
			 0.913343  0.102697 -0.394029
			 0.803690  0.020585 -0.594691
			 0.829886  0.164508  0.533129
			 0.710330  0.114360  0.694516
			-0.987966 -0.116935 -0.101244
			-0.999817 -0.018638 -0.004256
			-0.980886 -0.160119  0.110568
			-0.214833 -0.295530 -0.930865
			-0.096670 -0.245616 -0.964535
			-0.627906 -0.534964 -0.565285
			-0.692082 -0.632796 -0.347264
			-0.545704 -0.444482 -0.710382
			-0.399393 -0.394713 -0.827458
			-0.078835 -0.245013 -0.966309
			 0.104430 -0.071437 -0.991963
			-0.065982  0.006357 -0.997801
			-0.149897  0.147441 -0.977646
			-0.195533  0.281127 -0.939539
			-0.902463 -0.338754  0.266094
			-0.811418 -0.451701  0.370899
			-0.785797 -0.537488  0.305991
			-0.775621 -0.581844 -0.244682
			-0.781664 -0.623316  0.021876
			-0.670555 -0.123995  0.731424
			-0.809303 -0.037148  0.586216
			-0.996975  0.077370 -0.007459
			-0.968768  0.200329  0.146137
			-0.819753  0.264500  0.507981
			 0.589409  0.398991 -0.702427
			-0.078679  0.205822 -0.975421
			-0.259179  0.388863 -0.884088
			-0.084975  0.384537 -0.919190
			 0.540516  0.090715 -0.836429
			 0.241204  0.345082 -0.907050
			-0.146413  0.470027 -0.870424
			 0.654415  0.239029 -0.717361
			 0.476085  0.356077 -0.804085
			-0.312635 -0.203678  0.927779
			-0.335058 -0.252008  0.907870
			-0.230497 -0.214689  0.949094
			-0.396247 -0.128504  0.909107
			-0.409498  0.227919  0.883382
			-0.587095  0.084320  0.805114
			-0.480760  0.396749  0.781959
			-0.488431 -0.054280  0.870913
			-0.635363  0.255971  0.728555
			 0.282689 -0.016268  0.959074
			 0.300010 -0.015140  0.953816
			 0.400937 -0.062127  0.913997
			 0.614888  0.055516  0.786658
			 0.685314  0.089105  0.722776
			 0.495155 -0.006795  0.868778
			 0.176394 -0.042220  0.983414
			-0.044260 -0.135365  0.989807
			 0.466642  0.399194 -0.789234
			 0.387834  0.197182 -0.900391
			 0.299414  0.617303 -0.727522
			 0.123245  0.592327 -0.796216
			 0.210054  0.402514 -0.890988
			 0.272101  0.013625 -0.962172
			 0.144150  0.173914 -0.974153
			 0.349861 -0.009573 -0.936753
			 0.357271 -0.067891 -0.931530
			 0.999994  0.000526 -0.003517
			 0.845432  0.035892  0.532875
			 0.972151 -0.054641  0.227896
			 0.993197 -0.021864  0.114370
			 0.988686 -0.149289 -0.014588
			 0.985984 -0.091246  0.139675
			 0.983440 -0.002811 -0.181210
			 0.949195  0.046723 -0.311202
			 0.928082  0.117404 -0.353385
			 0.463175 -0.082507 -0.882418
			 0.773207 -0.058495 -0.631450
			 0.927363  0.001812 -0.374159
			 0.972007  0.034435 -0.232415
			 0.929066  0.055702 -0.365695
			-0.977961  0.125928  0.166536
			-0.973292 -0.058369  0.222025
			-0.741422 -0.541376 -0.396491
			-0.760789 -0.407915 -0.504783
			-0.754902 -0.593223 -0.279659
			-0.501067 -0.299950 -0.811765
			-0.689245 -0.410130 -0.597273
			-0.186313 -0.293372 -0.937668
			-0.318823 -0.247065 -0.915047
			 0.193381 -0.143327 -0.970598
			 0.049179 -0.192954 -0.979975
			 0.196726 -0.136423 -0.970921
			 0.030994  0.012986 -0.999435
			-0.081381  0.312631 -0.946382
			 0.025283  0.381597 -0.923983
			-0.811816 -0.456523  0.364062
			-0.888088 -0.169714  0.427197
			-0.769241 -0.521736  0.368862
			-0.733422 -0.591862  0.334353
			-0.828425 -0.437476 -0.349753
			-0.836735 -0.508309 -0.203707
			-0.699164 -0.624741  0.347661
			-0.813260 -0.579211  0.055878
			-0.577531  0.206409  0.789844
			-0.938776  0.311494  0.147212
			-0.779946  0.432284  0.452565
			 0.005652  0.603055 -0.797680
			-0.065289  0.513367 -0.855682
			 0.083382  0.521583 -0.849116
			-0.502104 -0.341699  0.794439
			-0.549070 -0.259853  0.794354
			-0.304315 -0.247790  0.919779
			-0.386189 -0.287185  0.876575
			-0.156054 -0.183313  0.970589
			-0.705302 -0.061678  0.706219
			-0.714847  0.214783  0.665479
			 0.233822 -0.092198  0.967898
			 0.354615 -0.256801  0.899056
			 0.452470 -0.248649  0.856414
			 0.551888 -0.064398  0.831428
			 0.736554 -0.018496  0.676126
			-0.058496 -0.159655  0.985438
			-0.333810 -0.245976  0.909982
			 0.191381  0.360909 -0.912753
			 0.284236 -0.110194 -0.952401
			 0.844003 -0.057136  0.533287
			 0.963678 -0.077592  0.255546
			 0.993080 -0.093872  0.070575
			 0.972927 -0.111690 -0.202333
			 0.973521 -0.182359  0.137849
			 0.960553 -0.200350 -0.192866
			 0.981564 -0.179355 -0.066059
			 0.980998 -0.100148  0.166173
			 0.929503 -0.063168 -0.363365
			 0.752946 -0.139749 -0.643072
			 0.411454 -0.206943 -0.887626
			 0.303681 -0.141722 -0.942175
			 0.285911 -0.120228 -0.950684
			 0.910213 -0.104762 -0.400671
			 0.986273 -0.047419 -0.158166
			 0.971591 -0.030889 -0.234641
			-0.901996  0.222123  0.370223
			-0.813149 -0.360057 -0.457326
			-0.752362 -0.405842 -0.518886
			-0.834340 -0.370297 -0.408358
			-0.856203 -0.349222 -0.380738
			-0.386403 -0.113970 -0.915261
			-0.503893 -0.205570 -0.838948
			-0.634812 -0.309715 -0.707877
			-0.807953 -0.370855 -0.457907
			-0.113915 -0.186491 -0.975830
			 0.150122 -0.197044 -0.968833
			 0.177192 -0.144951 -0.973444
			 0.135512 -0.191012 -0.972189
			-0.759999 -0.454194  0.464876
			-0.779858  0.034311  0.625015
			-0.733045 -0.282156  0.618897
			-0.607986 -0.461821  0.645813
			-0.869243 -0.456158 -0.190621
			-0.912683 -0.300737 -0.276707
			-0.640797 -0.516880  0.567639
			-0.714522 -0.576851  0.395855
			-0.763461 -0.564427  0.313926
			-0.847030 -0.517599  0.120963
			-0.773803  0.311374  0.551612
			-0.660719 -0.428559  0.616269
			-0.341759 -0.287564  0.894711
			-0.391101 -0.309258  0.866833
			 0.055741 -0.254022  0.965591
			 0.216156 -0.278019  0.935939
			 0.413440 -0.243282  0.877429
			 0.405672 -0.334937  0.850440
			 0.317507 -0.227093  0.920662
			 0.256242 -0.304025  0.917556
			 0.441336 -0.361479  0.821313
			 0.522419 -0.324313  0.788606
			 0.598546 -0.181143  0.780339
			 0.249012 -0.343510  0.905535
			 0.774301 -0.129827  0.619357
			-0.261782 -0.250132  0.932150
			-0.215025 -0.376370  0.901172
			 0.891918 -0.111811  0.438156
			 0.841799 -0.125820  0.524923
			 0.925786 -0.111804  0.361138
			 0.960662 -0.012390  0.277445
			 0.975680  0.009604  0.218987
			 0.990697 -0.084126  0.106968
			 0.928584 -0.183672 -0.322484
			 0.989211 -0.064030  0.131762
			 0.998483 -0.017105 -0.052343
			 0.952793 -0.100673  0.286446
			 0.929669 -0.150458 -0.336271
			 0.969753 -0.073388 -0.232794
			 0.990627 -0.024420 -0.134396
			 0.936306 -0.141482 -0.321425
			 0.919039 -0.177667 -0.351854
			 0.653999 -0.255310 -0.712111
			 0.862929 -0.223746 -0.453091
			 0.672162 -0.252003 -0.696199
			 0.083854 -0.134304 -0.987386
			 0.287606 -0.379108 -0.879523
			 0.479036 -0.369524 -0.796227
			 0.053744 -0.236103 -0.970241
			 0.031668 -0.170275 -0.984888
			 0.163718 -0.161243 -0.973241
			 0.975750 -0.186267 -0.114962
			 0.988266 -0.097520 -0.117556
			 0.994487 -0.102152  0.023660
			-0.795545 -0.330100 -0.508077
			-0.745733 -0.314925 -0.587115
			 0.782717 -0.412442 -0.466096
			 0.275727 -0.679717 -0.679676
			-0.896995 -0.305470 -0.319513
			 0.234700 -0.723511 -0.649190
			-0.894825 -0.336143 -0.293764
			-0.431113 -0.138573 -0.891594
			-0.357721 -0.050956 -0.932437
			-0.444999 -0.054608 -0.893865
			-0.409040 -0.124614 -0.903968
			-0.697005 -0.266531 -0.665691
			 0.005940 -0.208996 -0.977899
			-0.305969 -0.209543 -0.928695
			-0.380148 -0.370607  0.847430
			-0.501040 -0.473602  0.724334
			-0.920711 -0.373242 -0.113938
			-0.951909 -0.232610 -0.199401
			-0.722452 -0.550136  0.418824
			-0.597177 -0.503842  0.624118
			-0.843427 -0.509880  0.169274
			-0.116951 -0.378600  0.918142
			 0.075216 -0.319033  0.944754
			 0.154247 -0.414398  0.896929
			 0.470545 -0.297101  0.830854
			 0.252000 -0.088143  0.963705
			 0.362138 -0.197053  0.911058
			 0.403366 -0.455203  0.793780
			 0.128539 -0.236414  0.963113
			 0.065440 -0.317130  0.946122
			 0.517531 -0.379632  0.766839
			 0.300985 -0.357231  0.884191
			 0.481788 -0.358276  0.799699
			 0.624707 -0.243451  0.741939
			 0.530119 -0.278283  0.800957
			 0.490419 -0.375381  0.786497
			 0.723070 -0.246225  0.645401
			 0.174098 -0.189563  0.966310
			-0.407320 -0.492019  0.769421
			-0.314124 -0.505520  0.803601
			 0.877277 -0.123084  0.463936
			 0.922780  0.013560  0.385088
			 0.938956  0.194367  0.283871
			 0.923624  0.187342  0.334399
			 0.956243  0.240156  0.167106
			 0.968246  0.013169  0.249653
			 0.993713  0.108326  0.028289
			 0.982933  0.101819  0.153220
			 0.974714  0.185098 -0.125189
			 0.977319  0.208147 -0.039023
			 0.933336  0.010133 -0.358861
			 0.924058 -0.066808 -0.376369
			 0.959067  0.134662 -0.249112
			 0.965511 -0.133536 -0.223509
			 0.972160 -0.233445 -0.020197
			 0.466059 -0.386854 -0.795697
			 0.716454 -0.308038 -0.625944
			 0.756403 -0.319145 -0.570965
			 0.869948 -0.376656 -0.318310
			 0.451661 -0.356740 -0.817765
			 0.328295 -0.417222 -0.847437
			-0.252726 -0.195959 -0.947486
			-0.353863 -0.120389 -0.927517
			-0.222951 -0.120301 -0.967378
			 0.298159 -0.427148 -0.853607
			 0.056797 -0.378007 -0.924059
			-0.391501 -0.190032 -0.900341
			-0.293829 -0.226171 -0.928715
			-0.157188 -0.273437 -0.948960
			-0.420898 -0.247447 -0.872705
			 0.938638 -0.265561 -0.220081
			 0.976534 -0.197659  0.085514
			 0.991953 -0.104467  0.071531
			 0.982734 -0.149246  0.109363
			 0.995337 -0.063306  0.072771
			-0.846055 -0.349575 -0.402479
			-0.818817 -0.455316 -0.349608
			-0.883958 -0.350363 -0.309621
			-0.937278 -0.320711 -0.136582
			-0.887006 -0.346245 -0.305508
			-0.867639 -0.310373 -0.388420
			-0.571119 -0.198645 -0.796469
			-0.265235 -0.010189 -0.964130
			-0.504046 -0.041396 -0.862684
			-0.269595  0.008223 -0.962939
			-0.507953 -0.113319 -0.853899
			-0.203356 -0.000724 -0.979105
			-0.715042 -0.228274 -0.660762
			-0.551603 -0.543099  0.633070
			-0.948695 -0.284362 -0.138258
			-0.969918 -0.162108 -0.181603
			-0.653065 -0.581037  0.485697
			-0.856050 -0.498963  0.134964
			-0.857313 -0.496638  0.135521
			-0.901968 -0.423552  0.084012
			-0.060579 -0.482256  0.873934
			-0.142399 -0.450808  0.881189
			-0.076296 -0.420447  0.904104
			 0.133372 -0.545906  0.827163
			 0.362913 -0.494379  0.789863
			 0.353922 -0.349475  0.867529
			 0.190038 -0.012794  0.981694
			 0.056687  0.086761  0.994615
			 0.024290 -0.111802  0.993434
			 0.183057 -0.377392  0.907781
			 0.193969 -0.209716  0.958329
			 0.285395 -0.599260  0.747955
			 0.012277 -0.297268  0.954715
			-0.005939 -0.286625  0.958024
			 0.336750 -0.261711  0.904493
			 0.159252 -0.330588  0.930242
			 0.425845 -0.284630  0.858861
			 0.498376 -0.109273  0.860047
			 0.568524 -0.136057  0.811338
			 0.476685 -0.109394  0.872241
			 0.412190 -0.127802  0.902090
			 0.712241 -0.206354  0.670918
			 0.833876 -0.155354  0.529637
			 0.023128 -0.147442  0.988800
			 0.210519  0.147999  0.966322
			 0.299381  0.053264  0.952646
			 0.073290  0.108730  0.991366
			-0.400861 -0.709606  0.579456
			-0.252300 -0.630541  0.734004
			 0.887432  0.009212  0.460847
			 0.888279  0.167658  0.427612
			 0.864676  0.433052  0.254561
			 0.850820  0.378702  0.364267
			 0.953429  0.301260  0.014669
			 0.865038  0.494961  0.081991
			 0.903393  0.388981 -0.180482
			 0.894776  0.444117 -0.046217
			 0.924985  0.161725 -0.343871
			 0.893955  0.116366 -0.432787
			 0.908531  0.080207 -0.410046
			 0.885433  0.370803 -0.280201
			 0.989746 -0.122606  0.073289
			 0.990625  0.086281 -0.105914
			 0.923349 -0.230568  0.307026
			 0.158726 -0.458764 -0.874266
			 0.579316 -0.332321 -0.744282
			 0.546767 -0.369974 -0.751109
			 0.609142 -0.326277 -0.722835
			 0.739982 -0.415554 -0.528906
			 0.580019 -0.326276 -0.746406
			 0.882779 -0.236443 -0.405952
			 0.819361 -0.455048 -0.348683
			 0.304574 -0.417853 -0.855940
			 0.068802 -0.486838 -0.870778
			 0.222640 -0.430113 -0.874891
			 0.040472 -0.455767 -0.889179
			-0.598496 -0.175993 -0.781556