<?xml version="1.0"?>
<VTKFile type="PolyData" version="0.1" byte_order="LittleEndian" compressor="vtkZLibDataCompressor">
	<PolyData>
		<Piece NumberOfPoints="1997" NumberOfVerts="0" NumberOfLines="0" NumberOfStrips="0" NumberOfPolys="3990">
		<PointData Normals="Normals">
		<DataArray type="Float32" Name="Normals" NumberOfComponents="3" format="ascii">
			-0.098695 -0.957524 -0.270939
			-0.047085 -0.896475 -0.440585
			-0.020694 -0.996690  0.078614
			-0.263767 -0.964047 -0.032271
			-0.221690 -0.854146 -0.470413
			-0.397098 -0.870039 -0.292140
			-0.045957 -0.993454 -0.104581
			 0.108840 -0.904763 -0.411774
			-0.032671 -0.844921 -0.533893
			-0.331825 -0.726544 -0.601686
			-0.250551 -0.738180 -0.626350
			-0.048692 -0.900409  0.432312
			-0.086244 -0.907860  0.410307
			-0.122887 -0.964871  0.232212
			-0.459959 -0.853686  0.244248
			-0.305823 -0.874304  0.376914
			-0.447037 -0.890934 -0.079967
			-0.342985 -0.802920 -0.487525
			-0.552448 -0.825796 -0.113412
			-0.577271 -0.738354 -0.348700
			-0.514566 -0.749522 -0.416459
			-0.078467 -0.966774  0.243290
			 0.067944 -0.995085 -0.072034
			 0.269493 -0.934490 -0.232598
			 0.158060 -0.888370 -0.431063
			 0.312474 -0.866582 -0.389096
			 0.177878 -0.930609 -0.319885
			 0.011541 -0.908959 -0.416727
			-0.227200 -0.860641 -0.455716
			-0.467306 -0.740443 -0.483084
			-0.485013 -0.579097 -0.655294
			-0.667949 -0.544192 -0.507641
			-0.420808 -0.670463 -0.611065
			-0.444319 -0.600266 -0.665027
			-0.108632 -0.781312  0.614614
			-0.037534 -0.592521  0.804680
			-0.158128 -0.709242  0.687002
			-0.081104 -0.792222  0.604819
			-0.311726 -0.781349  0.540667
			-0.282612 -0.749599  0.598524
			-0.469501 -0.858234  0.207375
			-0.650271 -0.755018 -0.084238
			-0.597395 -0.786013  0.159072
			-0.554462 -0.614633 -0.561069
			-0.669820 -0.658270 -0.343542
			 0.061103 -0.949812  0.306795
			 0.195270 -0.978097  0.072084
			 0.391941 -0.919679  0.023914
			 0.476377 -0.852269 -0.216106
			 0.250717 -0.868934 -0.426725
			 0.430579 -0.888764 -0.157162
			 0.423624 -0.858128 -0.290101
			 0.469167 -0.832631 -0.294293
			 0.224244 -0.965305 -0.133793
			-0.007694 -0.941624 -0.336577
			 0.009419 -0.978135 -0.207759
			-0.314431 -0.893946 -0.319364
			-0.521678 -0.768829 -0.369802
			-0.603491 -0.536812 -0.589603
			-0.633304 -0.409637 -0.656599
			-0.583052 -0.762252 -0.281109
			-0.706805 -0.363809 -0.606687
			-0.731921 -0.613703 -0.296075
			-0.848844 -0.361210 -0.385993
			-0.881289 -0.378584 -0.282848
			-0.785576 -0.315054 -0.532552
			-0.090700 -0.606997  0.789511
			-0.121141 -0.503578  0.855415
			-0.051339 -0.394332  0.917533
			-0.017719 -0.366986  0.930057
			-0.208650 -0.684946  0.698079
			-0.072043 -0.569319  0.818954
			 0.005274 -0.736461  0.676460
			-0.438109 -0.756870  0.484984
			-0.240943 -0.526259  0.815474
			-0.774149 -0.631983 -0.035923
			-0.678923 -0.698261  0.226925
			-0.555001 -0.733190  0.392945
			-0.742182 -0.575365 -0.343687
			 0.109362 -0.906946  0.406803
			 0.159763 -0.914986  0.370509
			 0.544493 -0.835158 -0.077709
			 0.533278 -0.841408  0.087445
			 0.349812 -0.856057  0.380523
			 0.224047 -0.881781  0.415049
			 0.653470 -0.744579 -0.136303
			 0.660716 -0.721334 -0.207681
			 0.605437 -0.794281  0.050632
			 0.681424 -0.716079 -0.151299
			 0.486647 -0.868539  0.093889
			 0.364804 -0.931083  0.001725
			 0.242556 -0.958334  0.150873
			 0.442212 -0.871722  0.211068
			 0.057223 -0.993700 -0.096364
			-0.249437 -0.964955 -0.081499
			-0.487208 -0.846582 -0.214308
			-0.657785 -0.463261 -0.593892
			-0.769466 -0.409998 -0.489719
			-0.718315 -0.295428 -0.629878
			-0.710657 -0.250505 -0.657431
			-0.515523 -0.853441 -0.076651
			-0.767223 -0.631227 -0.113670
			-0.656503 -0.739351 -0.149544
			-0.853885 -0.506779 -0.118553
			-0.894262 -0.235786 -0.380395
			-0.944707 -0.245479 -0.217416
			-0.929927 -0.354652 -0.097252
			-0.869085 -0.026291 -0.493964
			-0.053370 -0.258709  0.964480
			-0.052889 -0.543461  0.837767
			-0.082961 -0.481215  0.872668
			-0.009703 -0.164471  0.986334
			-0.099945 -0.261516  0.960010
			 0.024238 -0.254533  0.966760
			 0.007691 -0.710005  0.704155
			-0.382470 -0.589074  0.711835
			-0.324566 -0.467857  0.822051
			-0.183200 -0.289249  0.939560
			-0.858970 -0.480319 -0.177379
			-0.801943 -0.524741  0.285542
			-0.902057 -0.429519  0.042512
			-0.670232 -0.542914  0.505997
			-0.631484 -0.649851  0.422991
			-0.488576 -0.572215  0.658683
			 0.012847 -0.702662  0.711408
			 0.673089 -0.712185  0.199360
			 0.472818 -0.775174  0.418986
			 0.085794 -0.682810  0.725541
			 0.171378 -0.648814  0.741398
			 0.745234 -0.664824  0.051326
			 0.830915 -0.555179 -0.036838
			 0.757138 -0.639604 -0.132846
			 0.764278 -0.644588  0.019646
			 0.666193 -0.725238  0.173829
			 0.319872 -0.888728  0.328397
			 0.117172 -0.969804  0.213896
			 0.630873 -0.664656  0.400290
			-0.085167 -0.995319  0.045680
			-0.059110 -0.985989  0.155987
			-0.220018 -0.968545  0.116242
			-0.827909 -0.233922 -0.509751
			-0.916819 -0.327447 -0.228519
			-0.697825 -0.182476 -0.692634
			-0.754329 -0.170725 -0.633909
			-0.716073 -0.034868 -0.697154
			-0.452926 -0.888078  0.078588
			-0.616386 -0.787402 -0.008208
			-0.647956 -0.761321  0.023335
			-0.809170 -0.587553 -0.005016
			-0.904750 -0.422475 -0.054250
			 0.175400 -0.516110 -0.838371
			-0.889544 -0.045617 -0.454566
			-0.982645 -0.178769 -0.049504
			-0.966795 -0.126379 -0.222114
			-0.942705  0.051616 -0.329611
			-0.928311  0.155400 -0.337770
			-0.874555  0.149986 -0.461149
			-0.740332  0.131931 -0.659169
			-0.013760 -0.121676  0.992474
			-0.074458 -0.456843  0.886425
			-0.075650 -0.126632  0.989061
			 0.068554 -0.422784  0.903634
			 0.091212 -0.336384  0.937297
			 0.010555 -0.243117  0.969940
			-0.006931 -0.441133  0.897415
			-0.108851 -0.147559  0.983045
			-0.330335 -0.365593  0.870184
			-0.104300 -0.147331  0.983572
			-0.575959 -0.408860  0.707887
			-0.757951 -0.389942  0.522931
			-0.865987 -0.388257  0.315156
			-0.940300 -0.310225  0.139985
			-0.850302 -0.310944  0.424618
			 0.637380 -0.684752  0.353357
			 0.593060 -0.585658  0.552526
			 0.558111 -0.660248  0.502579
			 0.630139 -0.571012  0.526185
			 0.811702 -0.556653  0.176853
			 0.281712 -0.588514  0.757819
			 0.878107 -0.476938  0.038198
			 0.895108 -0.432282  0.109148
			 0.790990 -0.558408  0.250032
			 0.832049 -0.511355  0.214969
			 0.421382 -0.835763  0.352047
			 0.277031 -0.937195  0.211941
			 0.118329 -0.963089  0.241782
			 0.032323 -0.979197  0.200322
			 0.614022 -0.665270  0.424727
			 0.741606 -0.521775  0.421631
			 0.593592 -0.748095  0.296651
			 0.675189 -0.596470  0.433986
			 0.831376 -0.453312  0.321439
			 0.665376 -0.535546  0.520063
			 0.751406 -0.420750  0.508290
			 0.023050 -0.985074  0.170582
			-0.419743 -0.900853  0.110818
			-0.389982 -0.917703  0.075734
			 0.126033 -0.990877  0.047722
			-0.177650 -0.983788 -0.024513
			-0.935437 -0.161390 -0.314502
			-0.951355 -0.228764 -0.206376
			-0.809678 -0.139327 -0.570096
			-0.824674 -0.067863 -0.561522
			-0.970486 -0.231048  0.069099
			-0.669053  0.024625 -0.742806
			-0.799055 -0.135192 -0.585862
			-0.651736 -0.056725 -0.756322
			-0.643058 -0.000289 -0.765817
			-0.815332 -0.576103 -0.057788
			-0.455029 -0.888579 -0.058105
			-0.712315 -0.688607 -0.135750
			-0.971882 -0.220357 -0.082994
			-0.958582 -0.212950 -0.189137
			-0.917262 -0.347272 -0.195018
			 0.874613  0.078319 -0.478453
			 0.917088 -0.000658 -0.398685
			-0.988478  0.086955 -0.123899
			-0.999337  0.011985 -0.034384
			-0.994011  0.109281  0.000154
			-0.975457  0.105396 -0.193326
			-0.948969  0.158853 -0.272439
			-0.832806  0.097508 -0.544909
			-0.915122  0.101343 -0.390233
			-0.658201  0.036888 -0.751938
			-0.028221 -0.137991  0.990031
			-0.133461 -0.143480  0.980613
			 0.222244 -0.422255  0.878811
			 0.197993 -0.348386  0.916202
			 0.389478 -0.456165  0.800138
			 0.141868 -0.281110  0.949132
			 0.141057 -0.227512  0.963505
			 0.149833 -0.109877  0.982587
			-0.080750 -0.216027  0.973043
			 0.036646 -0.076559  0.996391
			-0.037607 -0.155820  0.987069
			-0.374420 -0.244907  0.894332
			-0.010075 -0.169889  0.985412
			-0.080809 -0.121750  0.989266
			-0.315129 -0.163076  0.934933
			-0.578098 -0.304045  0.757205
			-0.757211 -0.302856  0.578714
			-0.858935 -0.255286  0.443914
			-0.914207 -0.232341  0.332028
			-0.612684 -0.224364  0.757812
			-0.743954 -0.226442  0.628694
			 0.501017 -0.574002  0.647692
			 0.667646 -0.624190  0.405752
			 0.390253 -0.455941  0.799888
			 0.544002 -0.517692  0.660347
			 0.423597 -0.538102  0.728706
			 0.873679 -0.382242  0.300959
			 0.757929 -0.420134  0.499030
			 0.936943 -0.347950  0.032683
			 0.900836 -0.411336  0.138918
			 0.913258 -0.334348  0.232745
			 0.970635 -0.213933  0.110004
			 0.867416 -0.406244  0.287324
			 0.494688 -0.858145  0.137372
			 0.520819 -0.853664 -0.002270
			 0.346478 -0.936034  0.061588
			 0.711543 -0.603112  0.360504
			 0.849111 -0.238232  0.471441
			 0.881826 -0.291432  0.370743
			 0.742537 -0.449426  0.496644
			 0.869981 -0.459033  0.180061
			 0.827310 -0.456941  0.326745
			 0.836383 -0.547665  0.022971
			 0.687047 -0.724891  0.049995
			 0.779840 -0.584524  0.224013
			 0.880693 -0.287537  0.376433
			 0.806224 -0.287233  0.517205
			 0.337552 -0.918330 -0.206709
			 0.465772 -0.860930 -0.204585
			 0.358930 -0.929511 -0.084733
			 0.116413 -0.973515 -0.196768
			 0.043231 -0.933698 -0.355442
			-0.225521 -0.951019 -0.211431
			-0.992458 -0.081733  0.091365
			-0.941605  0.046276 -0.333525
			-0.711955 -0.001483 -0.702224
			-0.806613  0.108959 -0.580950
			-0.928274 -0.162071  0.334724
			-0.651714  0.046660 -0.757028
			-0.611733  0.048214 -0.789594
			-0.866162 -0.432979 -0.249584
			-0.813309 -0.552920 -0.181129
			-0.605896 -0.773880 -0.184390
			-0.441249 -0.843262 -0.306934
			-0.599542 -0.668588 -0.439931
			-0.734398 -0.523641 -0.431810
			-0.989892 -0.011317 -0.141371
			-0.956033 -0.081677 -0.281654
			-0.910866 -0.214544 -0.352554
			-0.968183  0.241736 -0.064694
			-0.946452  0.264935 -0.184496
			-0.993702  0.111986 -0.003931
			-0.996196  0.027426 -0.082714
			-0.993510  0.113209  0.011070
			-0.956855  0.179471 -0.228512
			-0.888726 -0.110888 -0.444825
			-0.959348 -0.041062 -0.279224
			-0.843013 -0.099003 -0.528703
			-0.748004 -0.083055 -0.658477
			-0.695410 -0.076340 -0.714547
			-0.769201 -0.089755 -0.632672
			 0.334830 -0.357309  0.871905
			 0.342626 -0.186722  0.920729
			 0.325802 -0.060408  0.943506
			 0.493088 -0.128691  0.860409
			-0.002964 -0.240808  0.970568
			 0.179970 -0.075423  0.980776
			 0.021995 -0.091943  0.995521
			 0.030359 -0.019563  0.999348
			-0.098146 -0.191350  0.976603
			-0.280890 -0.154665  0.947195
			-0.514962 -0.161401  0.841881
			-0.822067 -0.177760  0.540932
			-0.671325 -0.108700  0.733149
			 0.453839 -0.333531  0.826309
			 0.568396 -0.477553  0.669977
			 0.740224 -0.263957  0.618381
			 0.898984 -0.217865  0.379951
			 0.832685 -0.214282  0.510606
			 0.617154 -0.276959  0.736488
			 0.956338 -0.227637  0.183303
			 0.951666 -0.210950  0.223231
			 0.966996 -0.047356  0.250352
			 0.954542 -0.119459  0.273091
			 0.766805 -0.600836 -0.225845
			 0.549855 -0.826420 -0.121199
			 0.893725 -0.176313  0.412516
			 0.855236 -0.216372  0.470909
			 0.924542 -0.083667  0.371781
			 0.876094 -0.137499  0.462118
			 0.912217 -0.242018  0.330587
			 0.937211 -0.290361  0.193197
			 0.892654 -0.450724 -0.003985
			 0.950462 -0.279853 -0.135290
			 0.963547 -0.253360 -0.085944
			 0.968909 -0.247322  0.006879
			 0.902962 -0.334262 -0.270051
			 0.849600 -0.210714  0.483507
			 0.945220 -0.103643  0.309544
			 0.537781 -0.758150 -0.368781
			 0.446078 -0.807398 -0.386164
			 0.298144 -0.893801 -0.335009
			 0.711449 -0.582176 -0.393588
			 0.300693 -0.873140 -0.383679
			 0.339273 -0.769749 -0.540722
			-0.189667 -0.922107 -0.337261
			-0.003538 -0.835696 -0.549180
			 0.264709 -0.740503 -0.617725
			-0.850845 -0.057567  0.522254
			-0.995883  0.065269 -0.062910
			-0.916322  0.011667  0.400273
			-0.969196  0.057973  0.239371
			-0.981909  0.128639  0.138950
			-0.961280  0.189599 -0.199983
			-0.871769  0.241808 -0.426084
			-0.716975  0.128616 -0.685131
			-0.709225  0.132970 -0.692328
			-0.784998 -0.000639 -0.619498
			-0.828154 -0.441055 -0.345877
			-0.785255 -0.288664 -0.547766
			-0.869381 -0.284503 -0.404023
			-0.310052 -0.795136 -0.521179
			-0.273576 -0.623794 -0.732146
			-0.498829 -0.514776 -0.697263
			-0.666477 -0.345506 -0.660631
			-0.987334  0.055779 -0.148527
			-0.876611 -0.034970 -0.479928
			-0.926209  0.096863 -0.364354
			-0.805020 -0.127789 -0.579321
			-0.948271  0.284688 -0.140483
			-0.981634  0.160758 -0.102723
			-0.983273  0.179346  0.031755
			-0.991797  0.113175 -0.059422
			-0.992372 -0.059342 -0.108056
			-0.996952 -0.044722 -0.063930
			-0.982188 -0.165052 -0.089803
			-0.980751 -0.066834 -0.183469
			-0.762126 -0.219812 -0.608973
			-0.891018 -0.282427 -0.355419
			-0.937454 -0.234989 -0.256826
			-0.792369 -0.201489 -0.575807
			-0.855392 -0.054460 -0.515110
			-0.918934 -0.131275 -0.371923
			-0.877653 -0.181687 -0.443525
			 0.499380 -0.031733  0.865802
			 0.688168 -0.175516  0.704002
			 0.596116 -0.073426  0.799534
			-0.041582 -0.170765  0.984434
			 0.395677 -0.090744  0.913895
			 0.250651 -0.035163  0.967439
			 0.108246  0.046500  0.993036
			-0.058455 -0.005582  0.998274
			 0.015352  0.084706  0.996288
			 0.111048  0.134151  0.984719
			-0.098589 -0.169822  0.980531
			-0.204143 -0.097345  0.974089
			-0.450724 -0.094756  0.887620
			-0.679825  0.016252  0.733194
			-0.468711  0.009482  0.883301
			 0.750969 -0.050639  0.658393
			 0.897514 -0.101113  0.429238
			 0.883825 -0.005275  0.467788
			 0.936777  0.031965  0.348463
			 0.850094  0.103432  0.516374
			 0.827121 -0.339561 -0.447849
			 0.790369 -0.426347 -0.439937
			 0.964036 -0.103882  0.244629
			 0.996278  0.053891  0.067282
			 0.976469  0.092441  0.194839
			 0.909133  0.039085  0.414668
			 0.822758 -0.086743  0.561733
			 0.999351 -0.035132 -0.007964
			 0.995827 -0.085562 -0.031733
			 0.938382 -0.119899 -0.324136
			 0.955661 -0.101519 -0.276415
			 0.967217 -0.040585 -0.250688
			 0.919302 -0.076911 -0.385965
			 0.891202 -0.137796 -0.432171
			 0.860951 -0.085698  0.501417
			 0.900563 -0.019061  0.434307
			 0.626609 -0.566695 -0.534993
			 0.442701 -0.775738 -0.449719
			 0.627798 -0.571146 -0.528831
			 0.436370 -0.775414 -0.456415
			 0.475008 -0.731585 -0.489030
			 0.740012 -0.318079 -0.592629
			 0.781357 -0.275922 -0.559776
			 0.509614 -0.641902 -0.572936
			 0.495285 -0.539107 -0.681216
			 0.220863 -0.639153 -0.736684
			-0.052317 -0.662661 -0.747090
			 0.490326 -0.493887 -0.718093
			-0.766868  0.080845  0.636693
			-0.913110  0.108486  0.393016
			-0.963991  0.218814  0.151133
			-0.959945  0.253534 -0.119269
			-0.883136  0.144811 -0.446206
			-0.945730  0.275245 -0.172726
			-0.552211 -0.060199 -0.831528
			-0.572047 -0.162413 -0.803980
			-0.230499 -0.437393 -0.869228
			-0.002250 -0.373084 -0.927795
			-0.437846 -0.341490 -0.831670
			-0.435136 -0.185359 -0.881078
			-0.963749  0.174427 -0.201900
			-0.783702  0.016433 -0.620919
			-0.839505  0.102166 -0.533661
			-0.899690  0.171288 -0.401521
			-0.941750  0.176433 -0.286319
			-0.711051  0.019967 -0.702857
			-0.979481  0.164547 -0.116364
			-0.950694 -0.260521 -0.168254
			-0.944056 -0.206340 -0.257259
			-0.957772  0.004336 -0.287497
			-0.816090 -0.265406 -0.513377
			-0.787330 -0.256639 -0.560579
			-0.867361 -0.283891 -0.408767
			-0.829689 -0.277824 -0.484181
			-0.902170 -0.255069 -0.347892
			-0.987925 -0.020672 -0.153546
			-0.945830 -0.196828 -0.258196
			-0.987952 -0.113468 -0.105242
			 0.586053  0.027215  0.809816
			 0.160108  0.032962  0.986549
			 0.404475  0.069353  0.911915
			 0.219971  0.099853  0.970383
			-0.086191  0.060571  0.994436
			 0.325280  0.120871  0.937861
			 0.470601  0.216805  0.855295
			 0.341806  0.238381  0.909034
			 0.208679  0.200748  0.957159
			 0.051899  0.213056  0.975661
			-0.161317  0.141578  0.976695
			-0.318426  0.059444  0.946082
			-0.571850  0.084097  0.816036
			-0.372858  0.154912  0.914866
			 0.910774  0.110785  0.397766
			 0.856763  0.190263  0.479330
			 0.643008  0.161652  0.748605
			 0.835637  0.211106  0.507095
			 0.804316 -0.091196 -0.587162
			 0.964761  0.156137 -0.211795
			 0.970188  0.228176 -0.081674
			 0.964052  0.254157  0.077515
			 0.914029  0.197305  0.354433
			 0.961334  0.112715 -0.251263
			 0.912766  0.212101 -0.349100
			 0.892231  0.063379 -0.447110
			 0.905691  0.068708 -0.418333
			 0.879387  0.190449 -0.436356
			 0.824551  0.098270 -0.557188
			 0.691715 -0.345455 -0.634186
			 0.688501 -0.491253 -0.533513
			 0.771344 -0.258998 -0.581333
			 0.622883 -0.459720 -0.632988
			 0.734846 -0.071367 -0.674469
			 0.735855 -0.054014 -0.674982
			 0.619121 -0.336407 -0.709591
			 0.662253 -0.293707 -0.689317
			 0.161565 -0.445040 -0.880816
			 0.529348 -0.364187 -0.766263
			 0.855676 -0.144099 -0.497046
			-0.721240  0.168331  0.671921
			-0.584419  0.157595  0.796001
			-0.879347  0.177957  0.441680
			-0.948301  0.268389  0.169390
			-0.966524  0.181476 -0.181379
			-0.989985  0.078820 -0.117116
			-0.959213  0.262685 -0.104440
			-0.300196 -0.033827 -0.953278
			-0.445907  0.093581 -0.890174
			-0.260940  0.055778 -0.963742
			-0.194350 -0.143394 -0.970395
			 0.281934 -0.147867 -0.947971
			 0.076809 -0.097647 -0.992253
			-0.803406  0.076078 -0.590551
			-0.845856  0.150395 -0.511771
			-0.787905  0.266864 -0.554968
			-0.735453  0.257925 -0.626564
			-0.777365  0.219680 -0.589444
			-0.868896  0.053422 -0.492103
			-0.732409  0.269327 -0.625332
			-0.647512  0.097052 -0.755850
			-0.875853 -0.094866 -0.473161
			-0.897744 -0.238316 -0.370489
			-0.881658 -0.246058 -0.402660
			-0.807749 -0.278722 -0.519476
			-0.773904 -0.372993 -0.511809
			-0.838034 -0.350961 -0.417763
			-0.887362 -0.381639 -0.258728
			-0.948093 -0.314057  0.049872
			-0.972520  0.068693  0.222454
			-0.983407 -0.061555  0.170650
			-0.982242 -0.185164  0.030261
			 0.717598  0.247756  0.650899
			 0.519778  0.384433  0.762917
			 0.692159  0.333454  0.640098
			 0.325261  0.334724  0.884401
			-0.033477  0.332865  0.942380
			 0.181676  0.365821  0.912781
			-0.180178  0.226974  0.957089
			-0.398388  0.169767  0.901369
			 0.714714  0.348382  0.606477
			 0.827502  0.241171  0.507028
			 0.718918  0.051322 -0.693198
			 0.938025  0.269739 -0.217600
			 0.965362  0.260861  0.005218
			 0.884100  0.300773  0.357636
			 0.922272  0.340458  0.183040
			 0.834421  0.255567 -0.488291
			 0.909585  0.233116 -0.343965
			 0.817757  0.236937 -0.524532
			 0.700008  0.169026 -0.693844
			 0.736339 -0.160814 -0.657224
			 0.756048 -0.011767 -0.654410
			 0.688663 -0.173190 -0.704094
			 0.681640  0.076406 -0.727687
			 0.747308  0.114364 -0.654562
			 0.698385  0.110604 -0.707125
			 0.732056 -0.046891 -0.679629
			 0.670612 -0.095098 -0.735688
			 0.368115 -0.250608 -0.895370
			 0.909830 -0.099192 -0.402953
			 0.979918 -0.013772 -0.198926
			 0.771715  0.013052 -0.635834
			-0.691974  0.265054  0.671505
			-0.765355  0.208254  0.608984
			-0.852013  0.268629  0.449347
			-0.917131  0.304155  0.257606
			-0.851927  0.293514  0.433671
			-0.984854  0.119225  0.125888
			-0.953809  0.258562  0.152951
			-0.089898  0.078835 -0.992826
			-0.179554  0.142447 -0.973380
			-0.488914  0.168812 -0.855842
			-0.002388  0.046589 -0.998911
			 0.638397 -0.017958 -0.769498
			 0.282263  0.015599 -0.959210
			 0.570245  0.150077 -0.807650
			-0.708599  0.146126 -0.690315
			-0.635749  0.205120 -0.744143
			-0.562977  0.398626 -0.723985
			-0.510021  0.310772 -0.802059
			-0.785512  0.030459 -0.618096
			-0.756927  0.095937 -0.646419
			-0.322139  0.445362 -0.835391
			-0.553729  0.258214 -0.791650
			-0.769383 -0.055767 -0.636349
			-0.745975  0.028824 -0.665350
			-0.811230 -0.213401 -0.544396
			-0.873350 -0.316663 -0.370114
			-0.773583 -0.349987 -0.528278
			-0.632896 -0.426149 -0.646405
			-0.848914 -0.369425 -0.377983
			-0.806791 -0.359746 -0.468691
			-0.829479 -0.346240 -0.438271
			-0.855359 -0.394066 -0.336262
			-0.896752 -0.438863  0.056879
			-0.864812 -0.437947 -0.245568
			-0.838136 -0.420512 -0.347415
			-0.900544 -0.184782  0.393543
			-0.831481 -0.282503  0.478363
			-0.850217 -0.344663  0.397917
			-0.928783  0.065836  0.364729
			-0.887677  0.139079  0.438961
			-0.822283  0.029681  0.568304
			 0.469723  0.398475  0.787767
			 0.585228  0.391148  0.710290
			 0.326586  0.329055  0.886038
			-0.104320  0.234104  0.966599
			 0.022511  0.218401  0.975599
			-0.132596  0.121686  0.983672
			-0.649226  0.260570  0.714569
			-0.529529  0.171106  0.830856
			-0.261497  0.142133  0.954682
			 0.771454  0.260386  0.580567
			 0.675514  0.311953  0.668106
			 0.874559  0.321971  0.362604
			 0.817984  0.292104  0.495557
			 0.918802  0.244863 -0.309587
			 0.938936  0.321951 -0.121433
			 0.922784  0.374066  0.092439
			 0.913612  0.377657  0.150627
			 0.905647  0.351072  0.237806
			 0.744370  0.225885 -0.628403
			 0.848577  0.189393 -0.494012
			 0.870614  0.214345 -0.442817
			 0.748194  0.184940 -0.637183
			 0.750258  0.049818 -0.659265
			 0.747672  0.131745 -0.650868
			 0.694496  0.119142 -0.709564
			-0.807144  0.284243  0.517422
			 0.115112  0.112904 -0.986915
			 0.262116  0.128922 -0.956386
			 0.068832  0.125301 -0.989728
			-0.013430  0.228196 -0.973523
			-0.262174  0.255123 -0.930686
			-0.421800  0.251566 -0.871091
			 0.592698  0.183603 -0.784219
			 0.689903  0.208492 -0.693228
			 0.406569  0.149132 -0.901366
			-0.269850  0.328563 -0.905112
			-0.546909  0.153869 -0.822931
			-0.327922  0.383844 -0.863210
			-0.045689  0.415839 -0.908290
			-0.330135  0.322359 -0.887184
			-0.560489  0.045586 -0.826906
			-0.703527 -0.107013 -0.702565
			-0.786836 -0.280913 -0.549524
			-0.671338 -0.296785 -0.679135
			-0.709410 -0.212765 -0.671914
			-0.738656 -0.316834 -0.594982
			-0.830546 -0.401971 -0.385504
			-0.647016 -0.485551 -0.587886
			-0.757858 -0.354258 -0.547862
			-0.744542 -0.358233 -0.563318
			 0.311996 -0.568571 -0.761174
			-0.800482 -0.418671  0.428886
			-0.893209 -0.448609 -0.030447
			-0.848642 -0.479523 -0.223302
			-0.875982 -0.481634  0.026157
			-0.870684 -0.444294  0.210978
			-0.815596 -0.411094 -0.407191
			-0.803548 -0.437283 -0.403850
			-0.797707 -0.034137  0.602078
			-0.699377 -0.096859  0.708160
			-0.759336 -0.210134  0.615834
			-0.747088 -0.186582  0.638002
			-0.620032 -0.190112  0.761195
			-0.739914 -0.276128  0.613417
			-0.716775 -0.282884  0.637347
			-0.701678 -0.332930  0.629925
			-0.721191  0.206156  0.661349
			-0.706031  0.112564  0.699178
			-0.468095  0.119377  0.875577
			-0.612131  0.015025  0.790614
			 0.562830  0.298535  0.770778
			 0.465674  0.198659  0.862370
			 0.184933  0.122329  0.975108
			-0.017601  0.096339  0.995193
			-0.175687  0.104462  0.978888
			 0.746368  0.293659  0.597243
			 0.673551  0.279914  0.684089
			 0.846247  0.331105  0.417415
			 0.765727  0.323456  0.555912
			 0.859787  0.216849 -0.462324
			 0.854233  0.293482 -0.429131
			 0.881230  0.352638 -0.314769
			 0.880964  0.453401 -0.135385
			 0.919954  0.380509  0.094324
			 0.918306  0.343290  0.197146
			 0.885943  0.358482  0.294272
			 0.740795  0.158277 -0.652818
			 0.780540  0.196813 -0.593314
			 0.821579  0.173781 -0.542963
			 0.802065  0.233483 -0.549706
			 0.351255  0.138626 -0.925961
			 0.283754  0.185252 -0.940832
			 0.129813  0.264296 -0.955665
			-0.177006  0.269137 -0.946696
			-0.246258  0.276547 -0.928913
			 0.699912  0.187109 -0.689285
			 0.577815  0.148591 -0.802528
			 0.029764  0.344321 -0.938380
			-0.018938  0.302875 -0.952842
			-0.217330  0.195074 -0.956407
			-0.320688  0.260316 -0.910711
			-0.347660  0.101908 -0.932066
			 0.300923  0.386802 -0.871682
			 0.128661  0.431674 -0.892807
			-0.155254  0.322416 -0.933780
			-0.306968  0.064438 -0.949536
			-0.461954 -0.048707 -0.885566
			-0.629235 -0.039705 -0.776200
			-0.624081 -0.165586 -0.763613
			-0.726588 -0.269127 -0.632171
			 0.369419 -0.368643 -0.853014
			 0.389187 -0.378670 -0.839727
			-0.685888 -0.264494 -0.677939
			-0.677944 -0.354541 -0.643967
			-0.525774 -0.321100 -0.787690
			-0.761474 -0.404869 -0.506200
			 0.746490 -0.377584 -0.547889
			 0.750709 -0.343719 -0.564174
			-0.636447 -0.382506  0.669794
			-0.837878 -0.482470  0.255313
			-0.682643 -0.414984  0.601487
			-0.859675 -0.510233 -0.024914
			-0.782098 -0.446918 -0.434267
			-0.800640 -0.474450 -0.365886
			-0.804375 -0.548180 -0.229083
			-0.795158 -0.596594  0.108626
			-0.774409 -0.398481 -0.491430
			-0.638660 -0.429740 -0.638308
			-0.708951 -0.426019 -0.562047
			-0.655541 -0.035863  0.754307
			-0.407271 -0.003256  0.913302
			-0.499144 -0.026914  0.866101
			-0.570847 -0.109151  0.813769
			-0.570621 -0.223855  0.790114
			-0.364723 -0.124247  0.922789
			-0.602106 -0.263657  0.753627
			-0.518133 -0.281119  0.807781
			-0.371222  0.054631  0.926936
			 0.595771  0.244420  0.765059
			 0.249111  0.169163  0.953587
			 0.599292  0.222027  0.769125
			 0.443037  0.165351  0.881123
			 0.072420  0.054003  0.995911
			-0.180942  0.063482  0.981443
			-0.166808 -0.007846  0.985958
			 0.687059  0.228864  0.689617
			 0.772776  0.303677  0.557313
			 0.818804  0.292426  0.494011
			 0.806285  0.253871 -0.534279
			 0.875877  0.298299 -0.379284
			 0.945302  0.168227 -0.279471
			 0.846257  0.425969 -0.319999
			 0.878969  0.445659 -0.169710
			 0.830179  0.507688 -0.230339
			 0.928583  0.366608 -0.057728
			 0.919556  0.346415  0.185505
			 0.877307  0.298232  0.376018
			 0.623245  0.203798 -0.755004
			 0.719148  0.214110 -0.661047
			 0.804619  0.231486 -0.546811
			 0.417071  0.212128 -0.883773
			 0.331140  0.281541 -0.900600
			 0.239654  0.336418 -0.910708
			-0.109218  0.258519 -0.959812
			-0.230012  0.103171 -0.967704
			-0.021786  0.209861 -0.977488
			 0.106180  0.266974 -0.957836
			 0.420776  0.397632 -0.815376
			 0.467752  0.409564 -0.783240
			 0.486205  0.345331 -0.802715
			 0.495845  0.294219 -0.817052
			 0.156319  0.364907 -0.917827
			-0.260166 -0.002794 -0.965560
			-0.549454 -0.208035 -0.809211
			-0.452535 -0.126087 -0.882787
			-0.565952 -0.289676 -0.771872
			 0.747554 -0.263627 -0.609642
			-0.651633 -0.370688 -0.661789
			-0.534580 -0.253039 -0.806347
			-0.624328 -0.245070 -0.741724
			-0.728016 -0.360666 -0.583021
			-0.706306 -0.369154 -0.604034
			-0.663226 -0.274464 -0.696276
			-0.596628 -0.334831  0.729330
			-0.763730 -0.515200  0.388954
			-0.512038 -0.328068  0.793844
			-0.647935 -0.501244  0.573528
			-0.586950 -0.421204  0.691431
			-0.791564 -0.421852 -0.442118
			-0.735109 -0.522150 -0.432405
			-0.745985 -0.637902 -0.191278
			-0.714527 -0.578065 -0.394071
			-0.737870 -0.672612 -0.056055
			-0.716172 -0.597482  0.360712
			-0.794964 -0.583030  0.167654
			-0.534290 -0.363500 -0.763152
			-0.611650 -0.447369 -0.652491
			-0.666342 -0.468814 -0.579829
			-0.622381 -0.465068 -0.629566
			-0.680624 -0.524206 -0.511820
			-0.357057 -0.041749  0.933149
			-0.376546 -0.141393  0.915544
			-0.196474 -0.065470  0.978321
			-0.271494 -0.068677  0.959987
			-0.330800 -0.172538  0.927794
			-0.391301 -0.203076  0.897577
			 0.314538  0.057361  0.947510
			 0.371602  0.058653  0.926538
			 0.567753  0.143243  0.810641
			-0.052118 -0.042726  0.997726
			-0.214151 -0.056510  0.975165
			 0.191405  0.043946  0.980527
			 0.708956  0.175835  0.682981
			 0.809080  0.225328  0.542787
			 0.965031  0.138838 -0.222349
			 0.798737  0.360779 -0.481516
			 0.934326  0.169101 -0.313752
			 0.845509  0.414595 -0.336488
			 0.889146  0.337920 -0.308594
			 0.918256  0.334889 -0.211316
			 0.921727  0.386907 -0.026879
			 0.936838  0.349244 -0.019038
			 0.938877  0.284926  0.193204
			 0.868691  0.223246  0.442196
			 0.660645  0.247097 -0.708867
			 0.686615  0.264545 -0.677182
			 0.707645  0.304433 -0.637620
			 0.002599  0.154912 -0.987925
			-0.052546  0.131300 -0.989949
			-0.095428  0.119360 -0.988254
			 0.257806  0.249190 -0.933510
			 0.395696  0.341678 -0.852456
			 0.618503  0.370787 -0.692800
			 0.575221  0.364022 -0.732536
			 0.619222  0.328521 -0.713189
			-0.033699  0.072461 -0.996802
			-0.331106 -0.047227 -0.942411
			-0.235494  0.017082 -0.971726
			-0.459267 -0.140471 -0.877121
			-0.360082 -0.191509 -0.913053
			-0.256705 -0.083620 -0.962866
			-0.233043 -0.115080 -0.965633
			-0.336756 -0.241779  0.910021
			-0.244717 -0.230121  0.941891
			-0.297799 -0.296657  0.907365
			-0.387679 -0.353154  0.851462
			-0.575592 -0.431968  0.694333
			-0.523026 -0.411752  0.746260
			-0.600954 -0.430073  0.673715
			-0.769176 -0.549536  0.326157
			-0.685507 -0.553594  0.472878
			-0.485990 -0.459990  0.743117
			-0.523936 -0.508034  0.683661
			-0.584660 -0.514769  0.627045
			-0.658032 -0.529076 -0.535791
			-0.708908 -0.617186 -0.341366
			-0.733281 -0.626910 -0.263217
			-0.695440 -0.528604 -0.486766
			-0.647170 -0.527362 -0.550509
			-0.683647 -0.560563 -0.467330
			-0.801132 -0.597478  0.034749