<VTKFile type="PolyData" version="1.0" byte_order="LittleEndian" header_type="UInt64">
  <PolyData>
    <Piece NumberOfPoints="464" NumberOfVerts="0" NumberOfLines="0" NumberOfStrips="0" NumberOfPolys="174">
      <PointData Normals="Normals">
        <DataArray type="Float32" Name="Normals" NumberOfComponents="3" format="ascii" RangeMin="0.99999942927" RangeMax="1.0000007062">
          0.27335101366 0.93588298559 -0.22226800025 0.27335101366 0.93588298559 -0.22226800025
          0.27335101366 0.93588298559 -0.22226800025 0.16214199364 0.97791999578 -0.13184100389
          0.16214199364 0.97791999578 -0.13184100389 0.16214199364 0.97791999578 -0.13184100389
          0.1256570071 0.99207401276 -0 0.1256570071 0.99207401276 -0
          0.1256570071 0.99207401276 -0 0.058612000197 0.97312402725 -0.22269999981
          0.058612000197 0.97312402725 -0.22269999981 0.058612000197 0.97312402725 -0.22269999981
          -0.14306800067 0.9174579978 -0.37121599913 -0.14306800067 0.9174579978 -0.37121599913
          -0.14306800067 0.9174579978 -0.37121599913 0.23215700686 0.90166699886 -0.36482700706
          0.23215700686 0.90166699886 -0.36482700706 0.23215700686 0.90166699886 -0.36482700706
          -0.020503999665 0.98426300287 -0.17551800609 -0.020503999665 0.98426300287 -0.17551800609
          -0.020503999665 0.98426300287 -0.17551800609 -0.072414003313 0.99737501144 0
          -0.072414003313 0.99737501144 0 -0.072414003313 0.99737501144 0
          -0.097971998155 0.99115002155 -0.089576996863 -0.097971998155 0.99115002155 -0.089576996863
          -0.097971998155 0.99115002155 -0.089576996863 -0.26265600324 0.93877702951 -0.22295600176
          -0.26265600324 0.93877702951 -0.22295600176 -0.26265600324 0.93877702951 -0.22295600176
          0.30186998844 0.84595501423 0.43958500028 0.30186998844 0.84595501423 0.43958500028
          0.30186998844 0.84595501423 0.43958500028 0.11112499982 0.74767899513 0.6546959877
          0.11112499982 0.74767899513 0.6546959877 0.11112499982 0.74767899513 0.6546959877
          0.024460000917 0.88708502054 0.46095699072 0.024460000917 0.88708502054 0.46095699072
          0.024460000917 0.88708502054 0.46095699072 0.64227801561 0.7366219759 0.21181699634
          0.64227801561 0.7366219759 0.21181699634 0.64227801561 0.7366219759 0.21181699634
          0.53940999508 0.2856990099 0.79209399223 0.53940999508 0.2856990099 0.79209399223
          0.53940999508 0.2856990099 0.79209399223 0.93751400709 0.34794700146 -0
          0.93751400709 0.34794700146 -0 0.93751400709 0.34794700146 -0
          0.93751400709 0.34794700146 0 0.67849200964 0.32303398848 -0.65977102518
          0.67849200964 0.32303398848 -0.65977102518 0.67849200964 0.32303398848 -0.65977102518
          0.12626500428 0.9291689992 -0.34742298722 0.12626500428 0.9291689992 -0.34742298722
          0.12626500428 0.9291689992 -0.34742298722 0.37713998556 0.91596502066 -0.13701599836
          0.37713998556 0.91596502066 -0.13701599836 0.37713998556 0.91596502066 -0.13701599836
          0.052519001067 0.85677200556 0.51301300526 0.052519001067 0.85677200556 0.51301300526
          0.052519001067 0.85677200556 0.51301300526 -0.18879200518 0.84252798557 0.50448399782
          -0.18879200518 0.84252798557 0.50448399782 -0.18879200518 0.84252798557 0.50448399782
          -0.6071370244 0.55996102095 -0.56376200914 -0.6071370244 0.55996102095 -0.56376200914
          -0.6071370244 0.55996102095 -0.56376200914 -0.33358299732 0.12693999708 -0.93413501978
          -0.33358299732 0.12693999708 -0.93413501978 -0.33358299732 0.12693999708 -0.93413501978
          -0.14550599456 0.5112349987 -0.84703397751 -0.14550599456 0.5112349987 -0.84703397751
          -0.14550599456 0.5112349987 -0.84703397751 -0.97867399454 0.20541900396 0
          -0.97867399454 0.20541900396 0 -0.97867399454 0.20541900396 0
          -0.97867399454 0.20541900396 0 -0.7499139905 0.19590699673 0.63186198473
          -0.7499139905 0.19590699673 0.63186198473 -0.7499139905 0.19590699673 0.63186198473
          -0.36335098743 0.61638098955 0.69860601425 -0.36335098743 0.61638098955 0.69860601425
          -0.36335098743 0.61638098955 0.69860601425 -0.36355799437 0.6164060235 0.6984770298
          -0.36355799437 0.6164060235 0.6984770298 -0.36355799437 0.6164060235 0.6984770298
          0.49997401237 0.14171999693 0.85436600447 0.49997401237 0.14171999693 0.85436600447
          0.49997401237 0.14171999693 0.85436600447 0.46578198671 0.07950399816 0.88132101297
          0.46578198671 0.07950399816 0.88132101297 0.46578198671 0.07950399816 0.88132101297
          -0.25042998791 0.15842600167 0.95508402586 -0.25042998791 0.15842600167 0.95508402586
          -0.25042998791 0.15842600167 0.95508402586 0.93008100986 0.070431999862 0.36053898931
          0.93008100986 0.070431999862 0.36053898931 0.93008100986 0.070431999862 0.36053898931
          0.91298002005 0.020457999781 0.40748998523 0.91298002005 0.020457999781 0.40748998523
          0.91298002005 0.020457999781 0.40748998523 0.99980300665 0.019855000079 -0
          0.99980300665 0.019855000079 -0 0.99980300665 0.019855000079 -0
          0.99980300665 0.019855000079 0 0.93360000849 0.020584000275 -0.3577260077
          0.93360000849 0.020584000275 -0.3577260077 0.93360000849 0.020584000275 -0.3577260077
          0.63421601057 0.65527397394 -0.41034799814 0.63421601057 0.65527397394 -0.41034799814
          0.63421601057 0.65527397394 -0.41034799814 0.61593598127 0.65940600634 -0.43105301261
          0.61593598127 0.65940600634 -0.43105301261 0.61593598127 0.65940600634 -0.43105301261
          0.37560200691 0.89832001925 -0.22791199386 0.37560200691 0.89832001925 -0.22791199386
          0.37560200691 0.89832001925 -0.22791199386 -0.53292798996 0.82017499208 -0.20808599889
          -0.53292798996 0.82017499208 -0.20808599889 -0.53292798996 0.82017499208 -0.20808599889
          -0.47249001265 0.81435501575 -0.33701398969 -0.47249001265 0.81435501575 -0.33701398969
          -0.47249001265 0.81435501575 -0.33701398969 -0.57069098949 0.78735297918 -0.23320999742
          -0.57069098949 0.78735297918 -0.23320999742 -0.57069098949 0.78735297918 -0.23320999742
          -0.49165999889 -0.47970300913 -0.72674298286 -0.49165999889 -0.47970300913 -0.72674298286
          -0.49165999889 -0.47970300913 -0.72674298286 -0.82593101263 -0.56377100945 -0
          -0.82593101263 -0.56377100945 -0 -0.82593101263 -0.56377100945 -0
          -0.82593101263 -0.56377100945 0 -0.58305597305 -0.521510005 0.62295502424
          -0.58305597305 -0.521510005 0.62295502424 -0.58305597305 -0.521510005 0.62295502424
          -0.6845099926 -0.11288800091 0.72021001577 -0.6845099926 -0.11288800091 0.72021001577
          -0.6845099926 -0.11288800091 0.72021001577 -0.27530100942 -0.10427600145 0.95568597317
          -0.27530100942 -0.10427600145 0.95568597317 -0.27530100942 -0.10427600145 0.95568597317
          0.17512899637 -0.29106000066 0.94053900242 0.17512899637 -0.29106000066 0.94053900242
          0.17512899637 -0.29106000066 0.94053900242 0.48866298795 0.04472900182 0.87132501602
          0.48866298795 0.04472900182 0.87132501602 0.48866298795 0.04472900182 0.87132501602
          -0.2204259932 -0.28835698962 0.93180602789 -0.2204259932 -0.28835698962 0.93180602789
          -0.2204259932 -0.28835698962 0.93180602789 0.70805001259 0.045164998621 0.70471602678
          0.70805001259 0.045164998621 0.70471602678 0.70805001259 0.045164998621 0.70471602678
          0.80444002151 0.56471902132 0.18430300057 0.80444002151 0.56471902132 0.18430300057
          0.80444002151 0.56471902132 0.18430300057 0.83528900146 0.54981100559 -0
          0.83528900146 0.54981100559 -0 0.83528900146 0.54981100559 -0
          0.83528900146 0.54981100559 0 0.76775598526 0.56359702349 -0.30480998755
          0.76775598526 0.56359702349 -0.30480998755 0.76775598526 0.56359702349 -0.30480998755
          0.94878399372 0.21269200742 -0.23360399902 0.94878399372 0.21269200742 -0.23360399902
          0.94878399372 0.21269200742 -0.23360399902 0.40390300751 0.25537699461 -0.87843298912
          0.40390300751 0.25537699461 -0.87843298912 0.40390300751 0.25537699461 -0.87843298912
          0.50535202026 0.046032998711 -0.86168402433 0.50535202026 0.046032998711 -0.86168402433
          0.50535202026 0.046032998711 -0.86168402433 -0.47396299243 0.046973001212 -0.87929099798
          -0.47396299243 0.046973001212 -0.87929099798 -0.47396299243 0.046973001212 -0.87929099798
          -0.18467199802 -0.21880699694 -0.95813399553 -0.18467199802 -0.21880699694 -0.95813399553
          -0.18467199802 -0.21880699694 -0.95813399553 -0.87499701977 -0.22509899735 -0.42861500382
          -0.87499701977 -0.22509899735 -0.42861500382 -0.87499701977 -0.22509899735 -0.42861500382
          -0.12766699493 -0.74941897392 -0.64967101812 -0.12766699493 -0.74941897392 -0.64967101812
          -0.12766699493 -0.74941897392 -0.64967101812 -0.38880801201 -0.92131900787 -0
          -0.38880801201 -0.92131900787 -0 -0.38880801201 -0.92131900787 -0
          -0.38880801201 -0.92131900787 0 -0.36942499876 -0.9263100028 0.073990002275
          -0.36942499876 -0.9263100028 0.073990002275 -0.36942499876 -0.9263100028 0.073990002275
          -0.59056800604 -0.5104560256 0.62503200769 -0.59056800604 -0.5104560256 0.62503200769
          -0.59056800604 -0.5104560256 0.62503200769 -0.35427299142 -0.49846801162 0.79121398926
          -0.35427299142 -0.49846801162 0.79121398926 -0.35427299142 -0.49846801162 0.79121398926
          -0.21332499385 -0.65430897474 0.72551500797 -0.21332499385 -0.65430897474 0.72551500797
          -0.21332499385 -0.65430897474 0.72551500797 0.1777960062 -0.24706700444 0.95254802704
          0.1777960062 -0.24706700444 0.95254802704 0.1777960062 -0.24706700444 0.95254802704
          -0.34280800819 -0.62914401293 0.69761097431 -0.34280800819 -0.62914401293 0.69761097431
          -0.34280800819 -0.62914401293 0.69761097431 0.48676499724 -0.27581000328 0.82884800434
          0.48676499724 -0.27581000328 0.82884800434 0.48676499724 -0.27581000328 0.82884800434
          0.70742201805 0.064415000379 0.70385098457 0.70742201805 0.064415000379 0.70385098457
          0.70742201805 0.064415000379 0.70385098457 0.99973100424 0.023173000664 -0
          0.99973100424 0.023173000664 -0 0.99973100424 0.023173000664 -0
          0.99973100424 0.023173000664 0 0.87327998877 0.053316999227 -0.48429301381
          0.87327998877 0.053316999227 -0.48429301381 0.87327998877 0.053316999227 -0.48429301381
          0.84553599358 0.21778599918 -0.48748201132 0.84553599358 0.21778599918 -0.48748201132
          0.84553599358 0.21778599918 -0.48748201132 0.40039899945 0.22507399321 -0.88826900721
          0.40039899945 0.22507399321 -0.88826900721 0.40039899945 0.22507399321 -0.88826900721
          0.40083500743 0.23664799333 -0.88505899906 0.40083500743 0.23664799333 -0.88505899906
          0.40083500743 0.23664799333 -0.88505899906 -0.68032699823 0.18931500614 -0.7080360055
          -0.68032699823 0.18931500614 -0.7080360055 -0.68032699823 0.18931500614 -0.7080360055
          -0.4023810029 -0.30845800042 -0.86194199324 -0.4023810029 -0.30845800042 -0.86194199324
          -0.4023810029 -0.30845800042 -0.86194199324 -0.93050700426 -0.26257899404 -0.25535899401
          -0.93050700426 -0.26257899404 -0.25535899401 -0.93050700426 -0.26257899404 -0.25535899401
          -0.79761201143 -0.41741898656 -0.43540298939 -0.79761201143 -0.41741898656 -0.43540298939
          -0.79761201143 -0.41741898656 -0.43540298939 -0.91133397818 -0.41166800261 -0
          -0.91133397818 -0.41166800261 -0 -0.91133397818 -0.41166800261 -0
          -0.91133397818 -0.41166800261 0 -0.68776702881 -0.39086100459 0.61172199249
          -0.68776702881 -0.39086100459 0.61172199249 -0.68776702881 -0.39086100459 0.61172199249
          -0.74526399374 -0.50982999802 0.42971399426 -0.74526399374 -0.50982999802 0.42971399426
          -0.74526399374 -0.50982999802 0.42971399426 -0.20231500268 -0.49654099345 0.84410601854
          -0.20231500268 -0.49654099345 0.84410601854 -0.20231500268 -0.49654099345 0.84410601854
          -0.27883300185 -0.10591100156 0.95448201895 -0.27883300185 -0.10591100156 0.95448201895
          -0.27883300185 -0.10591100156 0.95448201895 -0.21291999519 -0.08249899745 0.97358000278
          -0.21291999519 -0.08249899745 0.97358000278 -0.21291999519 -0.08249899745 0.97358000278
          -0.25130298734 -0.10674600303 0.96200400591 -0.25130298734 -0.10674600303 0.96200400591
          -0.25130298734 -0.10674600303 0.96200400591 0.45593601465 -0.12896500528 0.88061898947
          0.45593601465 -0.12896500528 0.88061898947 0.45593601465 -0.12896500528 0.88061898947
          0.52076399326 -0.062950998545 0.85137701035 0.52076399326 -0.062950998545 0.85137701035
          0.52076399326 -0.062950998545 0.85137701035 0.99947297573 -0.032467000186 0
          0.99947297573 -0.032467000186 0 0.99947297573 -0.032467000186 0
          0.99947297573 -0.032467000186 0 0.63879197836 -0.062254998833 -0.76685601473
          0.63879197836 -0.062254998833 -0.76685601473 0.63879197836 -0.062254998833 -0.76685601473
          0.60039299726 -0.45240300894 -0.65943902731 0.60039299726 -0.45240300894 -0.65943902731
          0.60039299726 -0.45240300894 -0.65943902731 -0.15613299608 -0.3185569942 -0.93495702744
          -0.15613299608 -0.3185569942 -0.93495702744 -0.15613299608 -0.3185569942 -0.93495702744
          -0.18672199547 -0.75542497635 -0.6280670166 -0.18672199547 -0.75542497635 -0.6280670166
          -0.18672199547 -0.75542497635 -0.6280670166 0.83765500784 -0.41999998689 -0.34919101
          0.83765500784 -0.41999998689 -0.34919101 0.83765500784 -0.41999998689 -0.34919101
          -0.53335601091 -0.19918699563 -0.82210499048 -0.53335601091 -0.19918699563 -0.82210499048
          -0.53335601091 -0.19918699563 -0.82210499048 -0.64561897516 -0.2001529932 -0.73696398735
          -0.64561897516 -0.2001529932 -0.73696398735 -0.64561897516 -0.2001529932 -0.73696398735
          -0.99177402258 -0.049263000488 -0.11814100295 -0.99177402258 -0.049263000488 -0.11814100295
          -0.99177402258 -0.049263000488 -0.11814100295 -0.9988489747 -0.04795999825 -0
          -0.9988489747 -0.04795999825 -0 -0.9988489747 -0.04795999825 -0
          -0.9988489747 -0.04795999825 0 -0.61473101377 -0.040486998856 0.78769701719
          -0.61473101377 -0.040486998856 0.78769701719 -0.61473101377 -0.040486998856 0.78769701719
          -0.75514698029 -0.079727999866 0.65068900585 -0.75514698029 -0.079727999866 0.65068900585
          -0.75514698029 -0.079727999866 0.65068900585 -0.04484000057 -0.065136000514 0.99686801434
          -0.04484000057 -0.065136000514 0.99686801434 -0.04484000057 -0.065136000514 0.99686801434
          0.4495010078 -0.1194299981 0.88525998592 0.4495010078 -0.1194299981 0.88525998592
          0.4495010078 -0.1194299981 0.88525998592 0.98601299524 -0.16666999459 0
          0.98601299524 -0.16666999459 0 0.98601299524 -0.16666999459 0
          0.98601299524 -0.16666999459 0 0.42394798994 -0.11574800313 -0.89825999737
          0.42394798994 -0.11574800313 -0.89825999737 0.42394798994 -0.11574800313 -0.89825999737
          0.47325998545 -0.2583310008 -0.84219402075 0.47325998545 -0.2583310008 -0.84219402075
          0.47325998545 -0.2583310008 -0.84219402075 -0.27594000101 -0.15257799625 -0.94898700714
          -0.27594000101 -0.15257799625 -0.94898700714 -0.27594000101 -0.15257799625 -0.94898700714
          -0.26052099466 -0.42085400224 -0.86891400814 -0.26052099466 -0.42085400224 -0.86891400814
          -0.26052099466 -0.42085400224 -0.86891400814 0.45262899995 -0.38869699836 -0.80252200365
          0.45262899995 -0.38869699836 -0.80252200365 0.45262899995 -0.38869699836 -0.80252200365
          -0.29162499309 -0.14819900692 -0.94498199224 -0.29162499309 -0.14819900692 -0.94498199224
          -0.29162499309 -0.14819900692 -0.94498199224 -0.97240298986 -0 -0.23330700397
          -0.97240298986 -0 -0.23330700397 -0.97240298986 -0 -0.23330700397
          0.080086000264 -0.1159439981 -0.99002200365 0.080086000264 -0.1159439981 -0.99002200365
          0.080086000264 -0.1159439981 -0.99002200365 -1 0 0
          -1 0 0 -1 0 0
          -1 -0 -0 0.63854801655 -0.10430400074 0.7624809742
          0.63854801655 -0.10430400074 0.7624809742 0.63854801655 -0.10430400074 0.7624809742
          0.43315199018 -0.11018700153 -0.89455997944 0.43315199018 -0.11018700153 -0.89455997944
          0.43315199018 -0.11018700153 -0.89455997944 -0.22545200586 -0.069678999484 -0.97175902128
          -0.22545200586 -0.069678999484 -0.97175902128 -0.22545200586 -0.069678999484 -0.97175902128
          -0.17456200719 -0.10081499815 -0.97947198153 -0.17456200719 -0.10081499815 -0.97947198153
          -0.17456200719 -0.10081499815 -0.97947198153 -0.71893501282 -0.045402999967 -0.69359302521
          -0.71893501282 -0.045402999967 -0.69359302521 -0.71893501282 -0.045402999967 -0.69359302521
          -0.71893501282 -0.045402999967 -0.69359302521 -0.71884399652 -0.045414999127 -0.69368702173
          -0.71884399652 -0.045414999127 -0.69368702173 -0.71884399652 -0.045414999127 -0.69368702173
          0.51402598619 -0.033679999411 -0.85711300373 0.51402598619 -0.033679999411 -0.85711300373
          0.51402598619 -0.033679999411 -0.85711300373 -0.99878501892 -0.049274999648 0
          -0.99878501892 -0.049274999648 0 -0.99878501892 -0.049274999648 0
          -0.99878501892 -0.049274999648 0 0.040635999292 -0.010892000049 -0.99911499023
          0.040635999292 -0.010892000049 -0.99911499023 0.040635999292 -0.010892000049 -0.99911499023
          0.37886101007 -0.078432001173 -0.92212402821 0.37886101007 -0.078432001173 -0.92212402821
          0.37886101007 -0.078432001173 -0.92212402821 0.37886101007 -0.078432001173 -0.92212402821
          -0.53200501204 -0 0.84674102068 -0.53200501204 -0 0.84674102068
          -0.53200501204 -0 0.84674102068 -0.53200501204 -0 0.84674102068
          -0.0079469997436 -0.010901000351 -0.99990898371 -0.0079469997436 -0.010901000351 -0.99990898371
          -0.0079469997436 -0.010901000351 -0.99990898371 -0.0079469997436 -0.010901000351 -0.99990898371
          -0.31407600641 -0.0179360006 0.949229002 -0.31407600641 -0.0179360006 0.949229002
          -0.31407600641 -0.0179360006 0.949229002 -0.36132198572 -0.028761999682 0.93199700117
          -0.36132198572 -0.028761999682 0.93199700117 -0.36132198572 -0.028761999682 0.93199700117
          -0.36132198572 -0.028761999682 0.93199700117 -0.04862299934 -0.018869999796 0.99863898754
          -0.04862299934 -0.018869999796 0.99863898754 -0.04862299934 -0.018869999796 0.99863898754
          -0.04862299934 -0.018869999796 0.99863898754 0.11408600211 -0.028675999492 -0.99305701256
          0.11408600211 -0.028675999492 -0.99305701256 0.11408600211 -0.028675999492 -0.99305701256
          -0.61663299799 -0.014667999931 0.78711402416 -0.61663299799 -0.014667999931 0.78711402416
          -0.61663299799 -0.014667999931 0.78711402416 -0.61663299799 -0.014667999931 0.78711402416
          0.044505000114 -0.010966000147 0.9989489913 0.044505000114 -0.010966000147 0.9989489913
          0.044505000114 -0.010966000147 0.9989489913 -0.15076200664 -0.058619998395 -0.98682999611
          -0.15076200664 -0.058619998395 -0.98682999611 -0.15076200664 -0.058619998395 -0.98682999611
          -0.15076200664 -0.058619998395 -0.98682999611 -0.32471999526 -0.063813000917 -0.94365501404
          -0.32471999526 -0.063813000917 -0.94365501404 -0.32471999526 -0.063813000917 -0.94365501404
          -0.59797298908 -0.023505000398 0.80117100477 -0.59797298908 -0.023505000398 0.80117100477
          -0.59797298908 -0.023505000398 0.80117100477 -0.82483500242 -0.048760998994 0.56326800585
          -0.82483500242 -0.048760998994 0.56326800585 -0.82483500242 -0.048760998994 0.56326800585
          -0.99878501892 -0.049274999648 -0 0.52255898714 -0.057473998517 0.85066401958
          0.52255898714 -0.057473998517 0.85066401958 0.52255898714 -0.057473998517 0.85066401958
          0.52255898714 -0.057473998517 0.85066401958 0 -1 -0
          0 -1 -0 0 -1 -0
          0 -1 0 0 -1 0
          0 -1 0 0 -1 0
          0 -1 0 0 -1 0
          0 -1 0 0 -1 0
          0 -1 0 0 -1 0
          0 -1 0 0 -1 0
          0 -1 0 0 -1 0
          0 -1 0 0 -1 0
          -0 -1 0 -0 -1 0
          -0 -1 0 -0 -1 0
          -0 -1 0 -0 -1 0
          0.47709000111 -0.089983999729 -0.87423598766 0.47709000111 -0.089983999729 -0.87423598766
          0.47709000111 -0.089983999729 -0.87423598766 0.47709000111 -0.089983999729 -0.87423598766
          -0.5645570159 0.025348000228 -0.82500499487 -0.5645570159 0.025348000228 -0.82500499487
          -0.5645570159 0.025348000228 -0.82500499487 0.99272602797 -0.12039899826 0
          0.99272602797 -0.12039899826 0 0.99272602797 -0.12039899826 0
          0.99272501469 -0.12039899826 0 0.99272501469 -0.12039899826 0
          0.99272501469 -0.12039899826 0 0.99272501469 -0.12039899826 0
        </DataArray>
      </PointData>
      <CellData>
      </CellData>
      <Points>
        <DataArray type="Float32" Name="Points" NumberOfComponents="3" format="ascii" RangeMin="0.030312746171" RangeMax="0.17453527755">
          0.0060000000522 -0.03125499934 -0.0031810000073 0.0060000000522 -0.028519999236 0.008334999904
          0.016459999606 -0.03125499934 0.0096829999238 0.0060000000522 -0.03125499934 -0.0031810000073
          0.016459999606 -0.03125499934 0.0096829999238 0.027592999861 -0.033989999443 0.0030879999977
          0.0060000000522 -0.03125499934 -0.0031810000073 0.027592999861 -0.033989999443 0.0030879999977
          0.027592999861 -0.033989999443 -0.009448999539 0.0060000000522 -0.03125499934 -0.0031810000073
          0.027592999861 -0.033989999443 -0.009448999539 0.016008999199 -0.034674998373 -0.015491000377
          0.0060000000522 -0.03125499934 -0.0031810000073 0.016008999199 -0.034674998373 -0.015491000377
          0.0060000000522 -0.035358998924 -0.013323999941 0.0060000000522 -0.03125499934 -0.0031810000073
          0.0060000000522 -0.035358998924 -0.013323999941 -0.0075249997899 -0.03450300172 -0.019814999774
          0.0060000000522 -0.03125499934 -0.0031810000073 -0.0075249997899 -0.03450300172 -0.019814999774
          -0.026972999796 -0.033649001271 -0.012753999792 0.0060000000522 -0.03125499934 -0.0031810000073
          -0.026972999796 -0.033649001271 -0.012753999792 -0.026972999796 -0.033649001271 0.0063930000179
          0.0060000000522 -0.03125499934 -0.0031810000073 -0.026972999796 -0.033649001271 0.0063930000179
          -0.0079770004377 -0.031083000824 0.014008999802 0.0060000000522 -0.03125499934 -0.0031810000073
          -0.0079770004377 -0.031083000824 0.014008999802 0.0060000000522 -0.028519999236 0.008334999904
          0.0060000000522 -0.028519999236 0.008334999904 0.0060000000522 -0.038777001202 0.028074000031
          0.023854000494 -0.040316998959 0.018776999786 0.0060000000522 -0.028519999236 0.008334999904
          0.023854000494 -0.040316998959 0.018776999786 0.016459999606 -0.03125499934 0.0096829999238
          -0.0079770004377 -0.031083000824 0.014008999802 0.0060000000522 -0.038777001202 0.028074000031
          0.0060000000522 -0.028519999236 0.008334999904 0.016459999606 -0.03125499934 0.0096829999238
          0.023854000494 -0.040316998959 0.018776999786 0.030511999503 -0.041854999959 0.0039369999431
          0.016459999606 -0.03125499934 0.0096829999238 0.030511999503 -0.041854999959 0.0039369999431
          0.027592999861 -0.033989999443 0.0030879999977 0.027592999861 -0.033989999443 0.0030879999977
          0.030511999503 -0.041854999959 0.0039369999431 0.030511999503 -0.041854999959 -0.010297999717
          0.027592999861 -0.033989999443 -0.009448999539 0.027592999861 -0.033989999443 -0.009448999539
          0.030511999503 -0.041854999959 -0.010297999717 0.019164999947 -0.03655499965 -0.019371999428
          0.027592999861 -0.033989999443 -0.009448999539 0.019164999947 -0.03655499965 -0.019371999428
          0.016008999199 -0.034674998373 -0.015491000377 0.016008999199 -0.034674998373 -0.015491000377
          0.019164999947 -0.03655499965 -0.019371999428 0.0060000000522 -0.03125499934 -0.020177999511
          0.016008999199 -0.034674998373 -0.015491000377 0.0060000000522 -0.03125499934 -0.020177999511
          0.0060000000522 -0.035358998924 -0.013323999941 0.0060000000522 -0.03125499934 -0.020177999511
          -0.0075249997899 -0.03450300172 -0.019814999774 0.0060000000522 -0.035358998924 -0.013323999941
          -0.0075249997899 -0.03450300172 -0.019814999774 -0.011132000014 -0.042881000787 -0.024251999334
          -0.031351000071 -0.054506998509 -0.014024999924 -0.0075249997899 -0.03450300172 -0.019814999774
          -0.031351000071 -0.054506998509 -0.014024999924 -0.026972999796 -0.033649001271 -0.012753999792
          0.0060000000522 -0.03125499934 -0.020177999511 -0.011132000014 -0.042881000787 -0.024251999334
          -0.0075249997899 -0.03450300172 -0.019814999774 -0.026972999796 -0.033649001271 -0.012753999792
          -0.031351000071 -0.054506998509 -0.014024999924 -0.031351000071 -0.054506998509 0.0076640001498
          -0.026972999796 -0.033649001271 0.0063930000179 -0.026972999796 -0.033649001271 0.0063930000179
          -0.031351000071 -0.054506998509 0.0076640001498 -0.015821000561 -0.046642001718 0.023656999692
          -0.026972999796 -0.033649001271 0.0063930000179 -0.015821000561 -0.046642001718 0.023656999692
          -0.0079770004377 -0.031083000824 0.014008999802 -0.0079770004377 -0.031083000824 0.014008999802
          -0.015821000561 -0.046642001718 0.023656999692 0.0060000000522 -0.038777001202 0.028074000031
          0.0060000000522 -0.038777001202 0.028074000031 0.0060000000522 -0.048693999648 0.029719000682
          0.024484999478 -0.052627000958 0.019554000348 0.0060000000522 -0.038777001202 0.028074000031
          0.024484999478 -0.052627000958 0.019554000348 0.023854000494 -0.040316998959 0.018776999786
          -0.015821000561 -0.046642001718 0.023656999692 0.0060000000522 -0.048693999648 0.029719000682
          0.0060000000522 -0.038777001202 0.028074000031 0.023854000494 -0.040316998959 0.018776999786
          0.024484999478 -0.052627000958 0.019554000348 0.030804000795 -0.056559000164 0.0040210001171
          0.023854000494 -0.040316998959 0.018776999786 0.030804000795 -0.056559000164 0.0040210001171
          0.030511999503 -0.041854999959 0.0039369999431 0.030511999503 -0.041854999959 0.0039369999431
          0.030804000795 -0.056559000164 0.0040210001171 0.030804000795 -0.056559000164 -0.010382000357
          0.030511999503 -0.041854999959 -0.010297999717 0.030511999503 -0.041854999959 -0.010297999717
          0.030804000795 -0.056559000164 -0.010382000357 0.024576000869 -0.045958999544 -0.026025999337
          0.030511999503 -0.041854999959 -0.010297999717 0.024576000869 -0.045958999544 -0.026025999337
          0.019164999947 -0.03655499965 -0.019371999428 0.019164999947 -0.03655499965 -0.019371999428
          0.024576000869 -0.045958999544 -0.026025999337 0.0060000000522 -0.035358998924 -0.036354001611
          0.019164999947 -0.03655499965 -0.019371999428 0.0060000000522 -0.035358998924 -0.036354001611
          0.0060000000522 -0.03125499934 -0.020177999511 0.0060000000522 -0.03125499934 -0.020177999511
          0.0060000000522 -0.035358998924 -0.036354001611 -0.015371000394 -0.047497000545 -0.029463000596
          0.0060000000522 -0.03125499934 -0.020177999511 -0.015371000394 -0.047497000545 -0.029463000596
          -0.011132000014 -0.042881000787 -0.024251999334 -0.011132000014 -0.042881000787 -0.024251999334
          -0.015371000394 -0.047497000545 -0.029463000596 -0.031351000071 -0.054506998509 -0.014024999924
          -0.015371000394 -0.047497000545 -0.029463000596 -0.027850000188 -0.059636000544 -0.013008000329
          -0.031351000071 -0.054506998509 -0.014024999924 -0.031351000071 -0.054506998509 -0.014024999924
          -0.027850000188 -0.059636000544 -0.013008000329 -0.027850000188 -0.059636000544 0.0066470000893
          -0.031351000071 -0.054506998509 0.0076640001498 -0.031351000071 -0.054506998509 0.0076640001498
          -0.027850000188 -0.059636000544 0.0066470000893 -0.015279999934 -0.054164998233 0.022991999984
          -0.031351000071 -0.054506998509 0.0076640001498 -0.015279999934 -0.054164998233 0.022991999984
          -0.015821000561 -0.046642001718 0.023656999692 -0.015821000561 -0.046642001718 0.023656999692
          -0.015279999934 -0.054164998233 0.022991999984 0.0060000000522 -0.048693999648 0.029719000682
          0.0060000000522 -0.048693999648 0.029719000682 0.0060000000522 -0.06818599999 0.023686999455
          0.024937000126 -0.068356998265 0.020107999444 0.0060000000522 -0.048693999648 0.029719000682
          0.024937000126 -0.068356998265 0.020107999444 0.024484999478 -0.052627000958 0.019554000348
          -0.015279999934 -0.054164998233 0.022991999984 0.0060000000522 -0.06818599999 0.023686999455
          0.0060000000522 -0.048693999648 0.029719000682 0.024484999478 -0.052627000958 0.019554000348
          0.024937000126 -0.068356998265 0.020107999444 0.038683000952 -0.068529002368 0.0063080000691
          0.024484999478 -0.052627000958 0.019554000348 0.038683000952 -0.068529002368 0.0063080000691
          0.030804000795 -0.056559000164 0.0040210001171 0.030804000795 -0.056559000164 0.0040210001171
          0.038683000952 -0.068529002368 0.0063080000691 0.038683000952 -0.068529002368 -0.012668999843
          0.030804000795 -0.056559000164 -0.010382000357 0.030804000795 -0.056559000164 -0.010382000357
          0.038683000952 -0.068529002368 -0.012668999843 0.027371000499 -0.062201999128 -0.029463000596