<?xml version="1.0"?>
<VTKFile type="PolyData" version="0.1" byte_order="LittleEndian" compressor="vtkZLibDataCompressor">
	<PolyData>
		<Piece NumberOfPoints="65" NumberOfVerts="0" NumberOfLines="0" NumberOfStrips="0" NumberOfPolys="126">
		<PointData Normals="Normals">
		<DataArray type="Float32" Name="Normals" NumberOfComponents="3" format="ascii">
			-0.384101  0.799662 -0.461526
			-0.415886  0.854322  0.311724
			 0.125313  0.970835 -0.204391
			 0.106861  0.415729 -0.903189
			-0.798862  0.601322  0.015224
			-0.234561  0.382135 -0.893842
			 0.066189  0.971918  0.225820
			-0.059100  0.897654  0.436721
			-0.027330  0.680764  0.731992
			-0.439386  0.639542  0.630813
			-0.746213  0.509261  0.428741
			 0.348987  0.762317 -0.545051
			 0.300854  0.953602 -0.011419
			 0.058700  0.355338 -0.932893
			-0.970131  0.193340  0.146512
			-0.649812 -0.090349 -0.754706
			 0.007841 -0.244105 -0.969717
			 0.021894  0.069582 -0.997336
			 0.201064  0.977815  0.058743
			 0.160070  0.839922  0.518564
			-0.241732  0.346438  0.906392
			 0.301970  0.340311  0.890507
			 0.201221  0.596659  0.776858
			-0.679112  0.041580  0.732856
			-0.902679  0.091315  0.420515
			 0.376811  0.919803 -0.109435
			 0.257761  0.752496 -0.606060
			 0.202450 -0.023893 -0.979001
			 0.130886  0.377436 -0.916739
			-0.354618 -0.754084 -0.552814
			-0.735214 -0.677795 -0.007357
			-0.033684 -0.655553 -0.754398
			-0.178579 -0.550520 -0.815499
			 0.109190 -0.348793 -0.930817
			 0.304135  0.920570  0.245058
			 0.162408  0.577303  0.800216
			 0.230626  0.833542  0.502015
			 0.237657 -0.188839  0.952816
			 0.011540 -0.476152  0.879288
			 0.319318  0.295363  0.900442
			 0.484358 -0.010218  0.874810
			 0.520520 -0.371682  0.768707
			 0.548589 -0.027486  0.835640
			-0.210464 -0.659069  0.722034
			-0.421793 -0.821430  0.383852
			 0.324512  0.943913 -0.060995
			 0.619125  0.590500 -0.517682
			 0.534386 -0.069163 -0.842406
			 0.612039 -0.160610 -0.774347
			-0.088054 -0.890145 -0.447089
			 0.214563 -0.970950 -0.105920
			 0.336683 -0.733998 -0.589824
			 0.547216  0.200082  0.812725
			 0.827707  0.523360  0.202473
			 0.402803 -0.764589  0.503144
			 0.310053 -0.891156  0.331222
			 0.481250 -0.454195  0.749736
			 0.819873 -0.326064  0.470628
			 0.339489 -0.841865  0.419536
			 0.852752 -0.221179 -0.473175
			 0.727824 -0.579650 -0.366439
			 0.136863 -0.987340  0.080180
			 0.943997 -0.227179 -0.239290
			 0.317139 -0.786748  0.529577
			 0.644655 -0.738141  0.198919
		</DataArray>
	</PointData>
	<Points>
		<DataArray type="Float32" NumberOfComponents="3" format="ascii">
			-0.008342 -0.018183 -0.014597
			-0.009152 -0.018579 -0.011381
			-0.005640 -0.017322 -0.013969
			-0.007001 -0.018645 -0.014963
			-0.012866 -0.021554 -0.012787
			-0.012424 -0.022626 -0.016288
			-0.005005 -0.017888 -0.012336
			-0.007020 -0.018929 -0.009347
			-0.007563 -0.020459 -0.007417
			-0.010093 -0.022503 -0.006132
			-0.011256 -0.023327 -0.006809
			-0.001362 -0.019175 -0.013396
			-0.004191 -0.018032 -0.013093
			-0.003985 -0.022220 -0.015605
			-0.015117 -0.028125 -0.009671
			-0.013952 -0.025192 -0.016289
			-0.008494 -0.023872 -0.016299
			-0.005123 -0.023686 -0.016152
			-0.002906 -0.018125 -0.011902
			-0.002581 -0.018806 -0.010179
			-0.011297 -0.026951 -0.003743
			-0.003941 -0.023957 -0.005821
			-0.004254 -0.020008 -0.008510
			-0.012474 -0.028571 -0.004128
			-0.014417 -0.028937 -0.007008
			-0.001115 -0.018735 -0.011972
			-0.000022 -0.020573 -0.014252
			-0.001224 -0.025076 -0.015969
			-0.000670 -0.022598 -0.016138
			-0.015018 -0.029889 -0.011884
			-0.014657 -0.031399 -0.008937
			-0.009016 -0.025610 -0.015160
			-0.005093 -0.026480 -0.015521
			-0.002014 -0.026752 -0.016319
			-0.000975 -0.018851 -0.010678
			 0.000393 -0.020715 -0.009054
			 0.000162 -0.019606 -0.010179
			-0.008555 -0.028758 -0.003451
			-0.010598 -0.029688 -0.003593
			-0.000543 -0.023223 -0.007838
			 0.000435 -0.025272 -0.008175
			-0.005145 -0.026982 -0.004535
			-0.002120 -0.025547 -0.006657
			-0.012061 -0.030866 -0.004507
			-0.013586 -0.031691 -0.006527
			 0.000064 -0.019271 -0.011494
			 0.003124 -0.020047 -0.012583
			 0.001188 -0.023096 -0.015732
			 0.000251 -0.026604 -0.014827
			-0.005381 -0.027753 -0.013416
			-0.004604 -0.028868 -0.008963
			 0.000311 -0.028088 -0.014934
			 0.003134 -0.020914 -0.009476
			 0.003037 -0.020042 -0.009983
			-0.009495 -0.029858 -0.004318
			-0.010578 -0.030830 -0.005160
			-0.002701 -0.027032 -0.006592
			 0.002668 -0.026728 -0.009571
			-0.003522 -0.028118 -0.007517
			 0.001687 -0.025174 -0.014231
			 0.001560 -0.028112 -0.012979
			-0.001446 -0.028733 -0.010162
			 0.002534 -0.026384 -0.012282
			-0.000805 -0.028194 -0.008836
			 0.002377 -0.027334 -0.009885
		</DataArray>
	</Points>
			<Polys>
				<DataArray type="Int32" Name="connectivity" format="ascii">
					0 1 2 
					0 2 3 
					1 0 4 
					3 5 0 
					0 5 4 
					1 6 2 
					7 1 8 
					9 8 1 
					10 9 1 
					10 1 4 
					6 1 7 
					11 2 12 
					2 11 3 
					12 2 6 
					13 3 11 
					5 3 13 
					14 4 15 
					15 4 5 
					14 10 4 
					16 15 5 
					17 16 5 
					17 5 13 
					12 6 18 
					6 7 18 
					8 19 7 
					7 19 18 
					8 9 20 
					21 22 8 
					21 8 20 
					8 22 19 
					9 10 20 
					20 10 23 
					14 24 10 
					23 10 24 
					12 18 11 
					18 25 11 
					11 25 26 
					11 26 13 
					13 27 17 
					13 28 27 
					26 28 13 
					29 14 15 
					29 30 14 
					14 30 24 
					29 15 31 
					15 16 31 
					32 31 16 
					16 17 32 
					17 33 32 
					17 27 33 
					25 18 19 
					19 34 25 
					19 22 35 
					34 19 36 
					19 35 36 
					37 20 38 
					38 20 23 
					37 21 20 
					22 21 39 
					39 21 40 
					37 41 21 
					21 41 42 
					40 21 42 
					39 35 22 
					43 23 44 
					24 44 23 
					38 23 43 
					30 44 24 
					45 25 34 
					25 45 26 
					46 28 26 
					26 45 46 
					47 48 27 
					48 33 27 
					47 27 28 
					28 46 47 
					49 29 31 
					50 30 29 
					29 49 50 
					30 50 44 
					31 32 49 
					32 33 49 
					33 48 51 
					33 51 49 
					36 45 34 
					35 39 52 
					35 53 36 
					35 52 53 
					45 36 53 
					54 37 38 
					54 41 37 
					38 43 55 
					54 38 55 
					39 40 52 
					40 42 56 
					40 57 52 
					40 56 57 
					41 54 58 
					56 42 41 
					58 56 41 
					44 55 43 
					44 50 55 
					45 53 46 
					46 53 59 
					59 47 46 
					48 47 59 
					51 48 60 
					59 60 48 
					61 50 49 
					49 51 61 
					55 50 58 
					58 50 61 
					51 60 61 
					52 57 53 
					57 62 53 
					59 53 62 
					54 55 58 
					63 56 58 
					63 57 56 
					62 57 64 
					63 64 57 
					63 58 61 
					60 59 62 
					60 62 64 
					64 61 60 
					61 64 63 
				</DataArray>
				<DataArray type="Int32" Name="offsets" format="ascii">
					3 6 9 12 15 18 21 24 27 30 33 36 39 42 45 48 51 54 57 60 63 66 69 72 75 78 81 84 87 90 93 96 99 102 105 108 111 114 117 120 123 126 129 132 135 138 141 144 147 150 153 156 159 162 165 168 171 174 177 180 183 186 189 192 195 198 201 204 207 210 213 216 219 222 225 228 231 234 237 240 243 246 249 252 255 258 261 264 267 270 273 276 279 282 285 288 291 294 297 300 303 306 309 312 315 318 321 324 327 330 333 336 339 342 345 348 351 354 357 360 363 366 369 372 375 378 
				</DataArray>
			</Polys>
		</Piece>
	</PolyData>
</VTKFile>
