<?xml version="1.0"?>
<VTKFile type="PolyData" version="0.1" byte_order="LittleEndian" compressor="vtkZLibDataCompressor">
	<PolyData>
		<Piece NumberOfPoints="2270" NumberOfVerts="0" NumberOfLines="0" NumberOfStrips="0" NumberOfPolys="4536">
		<PointData Normals="Normals">
		<DataArray type="Float32" Name="Normals" NumberOfComponents="3" format="ascii">
			 0.897867 -0.240864  0.368536
			 0.785230 -0.288337  0.547974
			 0.697329 -0.344428  0.628571
			 0.748533 -0.313721  0.584190
			 0.914195 -0.165392  0.369990
			 0.897690 -0.287901  0.333566
			 0.965524 -0.218539  0.141437
			 0.961696 -0.135872  0.238074
			 0.555930 -0.399429  0.728971
			 0.731973 -0.281039  0.620671
			 0.422123 -0.455740  0.783654
			 0.455823 -0.433107  0.777589
			 0.631487 -0.450582  0.631031
			 0.805507 -0.357532  0.472578
			 0.716150 -0.198278  0.669190
			 0.896810 -0.117909  0.426415
			 0.968747 -0.078373  0.235344
			 0.987154 -0.104533  0.120833
			 0.985008 -0.070250  0.157558
			 0.924178 -0.334678  0.184080
			 0.979813 -0.198261 -0.025664
			 0.156936 -0.550272  0.820104
			 0.482690 -0.321573  0.814617
			 0.324237 -0.453660  0.830098
			 0.634227 -0.266536  0.725751
			 0.198117 -0.515445  0.833706
			 0.127120 -0.557424  0.820438
			 0.285476 -0.589301  0.755796
			 0.547849 -0.615036  0.567091
			 0.786109 -0.438679  0.435423
			 0.777888 -0.096924  0.620884
			 0.465473 -0.145356  0.873044
			 0.572594 -0.132226  0.809106
			 0.956913  0.033210  0.288471
			 0.880716  0.018256  0.473292
			 0.972707  0.019599  0.231209
			 0.987177 -0.080538  0.137824
			 0.988887 -0.135625  0.060899
			 0.934416 -0.344485  0.090531
			 0.980070 -0.190482 -0.056387
			 0.759991 -0.528024  0.378952
			 0.868353 -0.464424  0.173995
			 0.993608 -0.104160 -0.043524
			 0.954767 -0.092618 -0.282562
			 0.000423 -0.539857  0.841757
			-0.236364 -0.509557  0.827336
			-0.138362 -0.581209  0.801905
			 0.155482 -0.423996  0.892218
			 0.173288 -0.367824  0.913607
			 0.211529 -0.381755  0.899733
			 0.263520 -0.294465  0.918612
			-0.022284 -0.703378  0.710467
			 0.173785 -0.732175  0.658573
			 0.467569 -0.696627  0.544141
			 0.648302  0.006297  0.761357
			 0.146847 -0.271425  0.951191
			 0.246820 -0.201143  0.947956
			 0.457060 -0.027943  0.888997
			 0.549700  0.121245  0.826517
			 0.426609 -0.078352  0.901036
			 0.915590  0.108459  0.387211
			 0.944712  0.190375  0.266976
			 0.787531  0.122432  0.603991
			 0.927245  0.257129  0.272214
			 0.977940  0.062656  0.199268
			 0.943625  0.145627  0.297263
			 0.989088 -0.036466  0.142745
			 0.976365 -0.214787 -0.024037
			 0.839682 -0.532930  0.104503
			 0.855383 -0.517267  0.027468
			 0.900385 -0.420813  0.110562
			 0.962857 -0.097272 -0.251882
			 0.693894 -0.629686  0.349295
			 0.994275  0.054554 -0.091870
			 0.956898 -0.021697 -0.289612
			 0.973168  0.016761 -0.229486
			 0.926232 -0.033795 -0.375437
			 0.884780 -0.101503 -0.454820
			 0.865876 -0.097395 -0.490685
			 0.892358 -0.069256 -0.445983
			-0.076588 -0.448227  0.890633
			-0.367314 -0.542448  0.755533
			-0.104861 -0.402530  0.909381
			-0.249580 -0.463294  0.850334
			-0.351029 -0.474070  0.807488
			-0.402465 -0.500214  0.766686
			-0.362297 -0.564375  0.741769
			-0.299034 -0.614022  0.730449
			-0.074559 -0.715534  0.694588
			 0.131552 -0.712402  0.689331
			 0.393352 -0.707848  0.586707
			 0.466102  0.144588  0.872836
			 0.659162  0.192441  0.726961
			 0.028269 -0.259184  0.965414
			 0.206454 -0.135860  0.968978
			 0.399768  0.154029  0.903582
			 0.529917  0.362804  0.766525
			 0.484700  0.096800  0.869308
			 0.404726  0.395161  0.824648
			 0.796453  0.255682  0.547986
			 0.828462  0.402702  0.389206
			 0.836763  0.425477  0.344670
			 0.805374  0.428966  0.409098
			 0.913229  0.331533  0.236850
			 0.970846  0.186544  0.150528
			 0.995080  0.093086  0.033930
			 0.933512 -0.358529 -0.003636
			 0.948192 -0.192840 -0.252478
			 0.725402 -0.659946  0.195611
			 0.765194 -0.632664  0.119223
			 0.838490 -0.537307  0.090745
			 0.849725 -0.505645  0.149301
			 0.907393 -0.127868 -0.400359
			 0.427619 -0.766667  0.478919
			 0.949650  0.080151 -0.302886
			 0.981829  0.130929 -0.137365
			 0.945801 -0.010108 -0.324590
			 0.869661 -0.108523 -0.481573
			 0.925328 -0.095233 -0.367012
			 0.899469 -0.151320 -0.409950
			 0.838377 -0.188143 -0.511592
			 0.835566 -0.214514 -0.505779
			 0.829392 -0.109715 -0.547788
			 0.865509 -0.164246 -0.473199
			-0.457873 -0.526239  0.716537
			-0.283602 -0.420771  0.861697
			-0.088090 -0.313297  0.945561
			-0.491142 -0.425265  0.760217
			-0.060956 -0.636977  0.768469
			-0.119109 -0.699238  0.704897
			-0.453921 -0.495708  0.740425
			-0.363071 -0.572541  0.735103
			 0.141187 -0.716749  0.682889
			 0.280762  0.300323  0.911580
			 0.505856  0.318096  0.801826
			 0.063593 -0.200975  0.977530
			 0.374605  0.087835  0.923015
			 0.477588  0.447977  0.755795
			 0.396835  0.277729  0.874865
			 0.431482  0.541113  0.721817
			 0.267225  0.465717  0.843622
			 0.348618  0.601088  0.719137
			 0.584776  0.467735  0.662768
			 0.742727  0.484964  0.461699
			 0.665378  0.518220  0.537327
			 0.555795  0.542291  0.630090
			 0.610898  0.558913  0.560732
			 0.844332  0.489650  0.217592
			 0.969675  0.243134  0.024819
			 0.908667 -0.331909 -0.253300
			 0.876055 -0.482206 -0.002119
			 0.495835 -0.791475  0.357373
			 0.505902 -0.800855  0.320460
			 0.416330 -0.806713  0.419384
			 0.596072 -0.744942  0.299598
			 0.792097 -0.589799  0.157222
			 0.865453 -0.499833 -0.034032
			 0.841993 -0.534618 -0.072335
			 0.837369 -0.537254 -0.100857
			 0.868406 -0.495019 -0.028766
			 0.114524 -0.789057  0.603550
			 0.965433  0.062542 -0.253038
			 0.957117  0.208876 -0.200741
			 0.953455 -0.108352 -0.281396
			 0.871031 -0.150623 -0.467566
			 0.844410 -0.167842 -0.508725
			 0.839374 -0.211148 -0.500866
			 0.890598 -0.212140 -0.402283
			 0.749087 -0.292702 -0.594301
			 0.786534 -0.222889 -0.575920
			 0.781875 -0.247458 -0.572220
			 0.858546 -0.370315 -0.354633
			-0.502266 -0.453277  0.736389
			-0.194241 -0.326150  0.925147
			-0.513922 -0.242751  0.822774
			-0.423946 -0.298205  0.855186
			 0.483436 -0.359308  0.798240
			-0.124995 -0.738929  0.662088
			-0.262788 -0.654234  0.709169
			-0.589933 -0.350430  0.727447
			-0.457042 -0.413891  0.787278
			-0.310817 -0.448364  0.838071
			-0.403764 -0.445146  0.799262
			-0.374274 -0.521983  0.766454
			-0.427009 -0.527211  0.734651
			-0.373171 -0.509496  0.775343
			-0.295714 -0.478252  0.826939
			-0.107485 -0.203026  0.973256
			 0.198794  0.016017  0.979910
			 0.228615  0.303707  0.924931
			 0.273873  0.474850  0.836368
			 0.059692  0.040141  0.997409
			 0.111660  0.497690  0.860138
			 0.203429  0.524080  0.827017
			 0.341869  0.571958  0.745647
			 0.366719  0.582648  0.725285
			 0.471952  0.653197  0.592111
			 0.449763  0.608240  0.654031
			 0.341873  0.591534  0.730212
			 0.346210  0.625368  0.699324
			 0.597322  0.622912  0.505161
			 0.943014  0.332685  0.006678
			 0.948836  0.304862 -0.082279
			 0.799545  0.578647  0.160923
			 0.649238  0.650343  0.394390
			 0.911185  0.410431  0.035888
			 0.900590  0.428181 -0.074820
			 0.245677 -0.818435  0.519430
			 0.263335 -0.812575  0.519977
			 0.551726 -0.726854  0.409000
			 0.125460 -0.760424  0.637193
			 0.828237 -0.533672  0.170934
			 0.879494 -0.466623 -0.093563
			 0.832272 -0.415108 -0.367437
			 0.849637 -0.418222 -0.321260
			 0.823709 -0.417432 -0.383737
			 0.830047 -0.419592 -0.367374
			-0.045263 -0.741031  0.669943
			 0.973279 -0.096884 -0.208184
			 0.962278  0.174002 -0.209154
			 0.987573 -0.075519 -0.137828
			 0.967870  0.183512 -0.171906
			 0.968832 -0.166161 -0.183727
			 0.931278 -0.266579 -0.248307
			 0.834085 -0.312803 -0.454375
			 0.841468 -0.360753 -0.402229
			 0.684508 -0.273866 -0.675608
			 0.591267 -0.372099 -0.715504
			 0.727237 -0.415094 -0.546648
			 0.613588 -0.426627 -0.664454
			 0.781216 -0.293202 -0.551122
			 0.718583 -0.249545 -0.649127
			 0.798934 -0.309099 -0.515909
			-0.332850 -0.245272  0.910523
			-0.627560 -0.238815  0.741037
			-0.459573 -0.075009  0.884967
			-0.501947 -0.216950  0.837247
			-0.570894  0.045855  0.819743
			-0.548950 -0.008674  0.835811
			 0.747220 -0.218132  0.627759
			 0.488218 -0.298011  0.820264
			-0.155200 -0.626286  0.763988
			-0.548853 -0.364747  0.752143
			-0.584081 -0.344086  0.735156
			-0.604379 -0.217861  0.766331
			-0.629391 -0.192902  0.752765
			-0.337559 -0.332319  0.880692
			-0.181975 -0.412257  0.892709
			-0.236977 -0.391963  0.888936
			-0.285923 -0.463176  0.838878
			-0.333222 -0.491738  0.804461
			-0.157483 -0.391654  0.906535
			-0.281357 -0.140519  0.949259
			-0.188334  0.088301  0.978127
			-0.057214  0.323506  0.944495
			-0.114184  0.407913  0.905853
			 0.098879  0.469811  0.877212
			-0.140072  0.342002  0.929201
			-0.075047  0.428859  0.900249
			 0.194005  0.531461  0.824567
			 0.536819  0.589901  0.603193
			 0.626510  0.563079  0.538912
			 0.406394  0.644367  0.647793
			 0.219602  0.652631  0.725154
			 0.155110  0.579773  0.799878
			-0.023246  0.489729  0.871565
			 0.201344  0.676858  0.708042
			 0.421586  0.679767  0.600151
			 0.933664  0.324434 -0.151704
			 0.954322  0.274583 -0.117788
			 0.624005  0.683876  0.378063
			 0.866395  0.499339  0.004490
			 0.758940  0.631494  0.158824
			 0.601445  0.724916  0.335800
			 0.358604  0.727267  0.585224
			 0.929285  0.339741 -0.144933
			 0.933546  0.341993 -0.107392
			 0.859913  0.504928 -0.074815
			 0.045890 -0.788156  0.613762
			 0.364282 -0.739896  0.565555
			 0.772966 -0.618177  0.142761
			 0.638817 -0.689436  0.341454
			-0.081052 -0.603880  0.792944
			 0.094395 -0.722082  0.685337
			 0.813177 -0.581793  0.016147
			 0.834151 -0.528105 -0.159052
			 0.809524 -0.428940 -0.400850
			 0.766096 -0.347854 -0.540458
			 0.755497 -0.297235 -0.583845
			 0.697647 -0.412673 -0.585653
			 0.993966 -0.085482 -0.068730
			 0.992032  0.116678 -0.047534
			 0.997946 -0.034598 -0.053909
			 0.977948 -0.188212 -0.090521
			 0.915323 -0.295765 -0.273325
			 0.968483 -0.220534 -0.115781
			 0.957543 -0.237069 -0.164040
			 0.902157 -0.351722 -0.249809
			 0.892470 -0.316219 -0.321719
			 0.769801 -0.422433 -0.478494
			 0.843779 -0.355409 -0.402146
			 0.728902 -0.465443 -0.502061
			 0.596487 -0.321804 -0.735286
			 0.435408 -0.433414 -0.789032
			 0.578734 -0.472969 -0.664355
			 0.591613 -0.537892 -0.600555
			 0.485932 -0.484849 -0.727181
			 0.611212 -0.318297 -0.724642
			-0.377189  0.141911  0.915200
			-0.663256 -0.126452  0.737633
			-0.666456  0.003624  0.745536
			-0.444329  0.161162  0.881248
			-0.444963  0.262724  0.856145
			-0.585182  0.203789  0.784877
			-0.419302  0.247302  0.873514
			-0.408623 -0.191955  0.892290
			-0.603133 -0.147749  0.783837
			-0.656079 -0.045207  0.753337
			-0.328670 -0.260172  0.907902
			-0.129274 -0.334609  0.933448
			-0.238381 -0.289229  0.927103
			-0.333574 -0.364500  0.869407
			-0.340218 -0.349367  0.873038
			-0.097223 -0.576816  0.811068
			-0.253901 -0.447352  0.857561
			-0.159070 -0.400825  0.902239
			-0.237803 -0.420885  0.875389
			-0.226931 -0.390317  0.892275
			-0.118773 -0.456257  0.881886
			-0.278935  0.246256  0.928199
			-0.259472  0.299185  0.918239
			-0.229793  0.401013  0.886783
			 0.184326  0.604756  0.774787
			 0.461458  0.651280  0.602405
			 0.435725  0.648051  0.624639
			 0.198930  0.717985  0.667026
			 0.425354  0.664344  0.614591
			-0.223488  0.509819  0.830745
			-0.157424  0.519653  0.839749
			-0.348115  0.462853  0.815220
			-0.429858  0.335261  0.838345
			-0.452573  0.329437  0.828642
			 0.948034  0.317180  0.025063
			 0.382048  0.753560  0.534964
			 0.819934  0.570307  0.049570
			 0.537306  0.802200  0.260340
			 0.737739  0.672186  0.062508
			 0.330743  0.793298  0.511162
			 0.934845  0.336558 -0.113111
			 0.931188  0.364032 -0.019200
			 0.933045  0.359629 -0.009756
			 0.848316  0.528867  0.025667
			 0.918968  0.394252  0.008011
			 0.669380  0.740868  0.055190
			 0.108872 -0.831768  0.544342
			 0.294563 -0.810770  0.505851
			 0.549129 -0.714552  0.433443
			 0.698214 -0.715520  0.022987
			 0.754378 -0.613407 -0.233765
			 0.511161 -0.812524  0.280213
			 0.030996 -0.721599  0.691617
			 0.710189 -0.530887 -0.462375
			 0.612978 -0.561464 -0.555892
			 0.502812 -0.417751 -0.756746
			 0.974234  0.222393  0.037539
			 0.953608  0.294467  0.062618
			 0.999830 -0.018383  0.001613
			 0.977025 -0.209737 -0.037847
			 0.812519 -0.478912 -0.332348
			 0.919665 -0.361212 -0.154085
			 0.707534 -0.551621 -0.441713
			 0.427095 -0.373043 -0.823668
			 0.246794 -0.435080 -0.865909
			 0.285571 -0.490767 -0.823163
			 0.416675 -0.582573 -0.697847
			 0.553452 -0.636505 -0.537170
			 0.401805 -0.357650 -0.842994
			 0.450857 -0.342514 -0.824265
			-0.614552 -0.096613  0.782937
			-0.543042  0.101923  0.833497
			-0.677611  0.008061  0.735376
			-0.548948  0.260081  0.794364
			-0.521285  0.157780  0.838670
			 0.946791 -0.034038  0.320045
			 0.753616  0.053536  0.655131
			-0.533916 -0.018178  0.845342
			-0.439743 -0.035284  0.897430
			-0.510148 -0.200988  0.836274
			-0.568438 -0.128782  0.812585
			-0.652671  0.062802  0.755034
			-0.500877  0.105134  0.859109
			-0.657902 -0.035221  0.752280
			-0.643133  0.027466  0.765261
			-0.638724  0.086459  0.764563
			-0.405719 -0.377347  0.832467
			-0.438596 -0.398911  0.805297
			-0.466476 -0.406740  0.785470
			-0.433014 -0.384645  0.815198
			-0.530795 -0.357164  0.768564
			-0.093911 -0.741480  0.664371
			 0.010066 -0.709946  0.704184
			-0.089578 -0.380152  0.920576
			-0.061262 -0.538005  0.840712
			-0.075095 -0.358764  0.930403
			-0.365538 -0.457651  0.810517
			-0.115021 -0.308602  0.944211
			-0.357114 -0.438391  0.824793
			 0.057278  0.613009  0.787997
			 0.442231  0.732699  0.517285
			 0.430224  0.610986  0.664532
			 0.138090  0.613220  0.777748
			-0.353924  0.368038  0.859818
			 0.399337  0.819960  0.410116
			 0.525922  0.823443  0.212950
			 0.907560  0.407755  0.100357
			 0.808618  0.561072  0.177018
			 0.655795  0.735591  0.169821
			 0.877206  0.409158  0.251195
			 0.911035  0.390905  0.131184
			 0.922497  0.353098  0.155949
			 0.949932  0.235345  0.205530
			 0.115042 -0.754318  0.646351
			 0.180293 -0.917106  0.355543
			 0.223001 -0.768853  0.599280
			 0.364834 -0.846198  0.388389
			 0.410597 -0.847822  0.335571
			 0.666415 -0.651130 -0.363209
			 0.630888 -0.773191 -0.064465
			 0.556944 -0.829810  0.035050
			 0.665505 -0.680939 -0.305655
			 0.660260 -0.688681 -0.299625
			 0.524558 -0.558425 -0.642651
			 0.330095 -0.547360 -0.769048
			 0.323036 -0.413358 -0.851342
			 0.895392  0.401095  0.193378
			 0.959160  0.251645  0.129178
			 0.997433  0.008043  0.071155
			 0.963451 -0.263062  0.050596
			 0.989330 -0.026515  0.143259
			 0.859225 -0.484964 -0.162916
			 0.657257 -0.653254 -0.375862
			 0.652969 -0.695591 -0.299639
			 0.803290 -0.549611 -0.229464
			 0.913393 -0.406235 -0.026197
			 0.204453 -0.424179 -0.882197
			 0.012519 -0.503075 -0.864152
			 0.227909 -0.594543 -0.771088
			 0.385489 -0.690988 -0.611501
			 0.305158 -0.668833 -0.677894
			 0.372026 -0.762845 -0.528833
			 0.556155 -0.711269 -0.429870
			 0.279070 -0.379452 -0.882120
			 0.746880  0.115805  0.654797
			 0.951522  0.023056  0.306717
			-0.556534  0.198231  0.806830
			 0.107712  0.175856  0.978505
			-0.556709  0.134697  0.819714
			 0.443762  0.018146  0.895961
			-0.387337  0.084664  0.918043
			-0.548415 -0.001014  0.836206
			-0.623791 -0.262494  0.736194
			-0.612507 -0.161000  0.773895
			-0.503342  0.080424  0.860336
			-0.611925  0.059899  0.788644
			-0.637961  0.032022  0.769403
			-0.663145  0.034840  0.747680
			-0.379714  0.125102  0.916606
			-0.661459  0.126202  0.739287
			-0.596687  0.058427  0.800344
			-0.601559 -0.327860  0.728447
			-0.536576 -0.213301  0.816449
			-0.433020 -0.427281  0.793678
			-0.182579 -0.804649  0.564982
			-0.343625 -0.808639  0.477518
			-0.240903 -0.684285  0.688273
			 0.069052 -0.669531  0.739568
			-0.140995 -0.785340  0.602794
			-0.141166 -0.512745  0.846855
			-0.055291 -0.373686  0.925906
			-0.443722 -0.575205  0.687204
			-0.341679 -0.405054  0.848049
			-0.508159 -0.519846  0.686684
			-0.486300 -0.629040  0.606483
			-0.176704 -0.401703  0.898560
			-0.117792  0.503685  0.855819
			 0.517288  0.657729  0.547545
			 0.558134  0.639069  0.529223
			 0.616463  0.657116  0.433787
			 0.616766  0.698092  0.363685
			 0.205498  0.568933  0.796295
			-0.011516  0.513450  0.858042
			 0.379404  0.618241  0.688353
			-0.155414  0.509453  0.846347
			-0.322005  0.402371  0.856978
			-0.521541  0.246208  0.816931
			 0.886472  0.405598  0.222841
			 0.707150  0.605298  0.365449
			 0.674764  0.660876  0.328535
			 0.824935  0.325531  0.462074
			 0.939256  0.158997  0.304169
			 0.920410  0.238526  0.309758
			 0.852914  0.455885  0.254375
			 0.850531  0.379879  0.363715
			 0.888709  0.190802  0.416882
			 0.917408 -0.090727  0.387468
			 0.893467 -0.020444  0.448663
			 0.222745 -0.692836  0.685830
			 0.620940 -0.774635  0.119889
			 0.575878 -0.739562  0.348443
			 0.486001 -0.738968  0.466614
			 0.685283 -0.711269 -0.156471
			 0.584347 -0.719089 -0.376098
			 0.342380 -0.621454 -0.704677
			 0.231210 -0.542409 -0.807672
			-0.003876 -0.620047 -0.784555
			 0.159805 -0.543870 -0.823813
			 0.955020  0.230943  0.186018
			 0.958387 -0.280393  0.053608
			 0.986959 -0.088775  0.134277
			 0.940938  0.231797  0.246792
			 0.955759  0.133138  0.262296
			 0.839149 -0.528947 -0.126665
			 0.590622 -0.706414 -0.390058
			 0.763303 -0.616628 -0.192712
			 0.572100 -0.765202 -0.295242
			 0.523964 -0.759396 -0.385720
			 0.612612 -0.747056 -0.258096
			 0.702614 -0.678590 -0.214123
			 0.920603 -0.388754  0.036892
			 0.855286 -0.517332 -0.029215
			-0.249339 -0.574939 -0.779278
			-0.260575 -0.548906 -0.794231
			-0.085597 -0.581319 -0.809161
			 0.055252 -0.567226 -0.821707
			 0.142482 -0.592901 -0.792570
			 0.129894 -0.656190 -0.743332
			 0.246330 -0.646923 -0.721673
			 0.148142 -0.696642 -0.701957
			 0.351898 -0.697354 -0.624392
			 0.259107 -0.707245 -0.657775
			 0.405576 -0.779118 -0.478000
			 0.307236 -0.806841 -0.504592
			 0.519013 -0.663476 -0.538911
			 0.289439 -0.818185 -0.496787
			-0.476482  0.120016  0.870954
			 0.745527  0.106362  0.657933
			 0.956791  0.024756  0.289720
			-0.663957 -0.006593  0.747742
			 0.952091  0.037074  0.303558
			 0.745790  0.042495  0.664824
			-0.608214 -0.183491  0.772274
			-0.609239 -0.035939  0.792172
			-0.627207 -0.052868  0.777056
			 0.441423  0.023422  0.896993
			-0.678472  0.023987  0.734235
			-0.601637  0.055297  0.796853
			-0.662465  0.024222  0.748701
			 0.455136 -0.012773  0.890330
			-0.422038  0.262885  0.867626
			-0.347893  0.228215  0.909334
			-0.630280  0.109286  0.768638
			-0.485474  0.119988  0.865978
			-0.659198 -0.110699  0.743777
			-0.638262 -0.031121  0.769189
			-0.625859 -0.046867  0.778527
			-0.642515  0.016545  0.766095
			-0.530824  0.085841  0.843124
			-0.601606 -0.192753  0.775188
			-0.698496 -0.207637  0.684828
			-0.627697 -0.236086  0.741796
			-0.516460 -0.345603  0.783471
			-0.394255 -0.368033  0.842090
			-0.524822 -0.514004  0.678500
			-0.548482 -0.599914  0.582470
			-0.328449 -0.881477  0.339293
			-0.268213 -0.904081  0.332716
			-0.475399 -0.836280  0.273186
			-0.363151 -0.871851  0.328628
			-0.428631 -0.651790  0.625657
			-0.511891 -0.724637  0.461378
			-0.061758 -0.816694  0.573756
			-0.211908 -0.934927  0.284618
			-0.299405 -0.514217  0.803702
			-0.545975 -0.731555  0.408338
			-0.414851 -0.505798  0.756351
			-0.527923 -0.612346  0.588497
			-0.571723 -0.669990  0.473548
			-0.606667 -0.712464  0.352634
			 0.399106  0.649493  0.647204
			 0.249965  0.642103  0.724721
			 0.461548  0.567653  0.681720
			 0.568943  0.606413  0.555489
			 0.657754  0.596491  0.459954
			 0.737669  0.543225  0.400938
			 0.662695  0.569166  0.486708
			-0.146693  0.463064  0.874101
			 0.097996  0.538522  0.836894
			-0.314362  0.326585  0.891358
			-0.320278  0.382571  0.866638
			 0.850454  0.427286  0.306845
			 0.717518  0.485187  0.499761
			 0.704529  0.465784  0.535428
			 0.744313  0.322960  0.584547
			 0.835850  0.159890  0.525157
			 0.863965 -0.074951  0.497943
			 0.929304  0.097766  0.356141
			 0.781603  0.499867  0.373135
			 0.797804  0.425909  0.426744
			 0.879145  0.167551  0.446128
			 0.797006  0.340668  0.498725
			 0.815604 -0.057447  0.575752
			 0.805766 -0.177705  0.564944
			 0.124631 -0.861197  0.492755
			 0.658788 -0.742908  0.118685
			 0.363841 -0.875764  0.317265
			 0.588365 -0.804200  0.084198
			 0.376123 -0.921150 -0.100067
			 0.285140 -0.816046 -0.502757
			 0.016624 -0.677415 -0.735414
			-0.201018 -0.653749 -0.729523
			 0.987455 -0.144648  0.063320
			 0.982927 -0.158452  0.093532
			 0.906055 -0.415715  0.079024
			 0.953788 -0.253000  0.162111
			 0.940870  0.181157  0.286261
			 0.852389  0.383700  0.355255
			 0.751056 -0.647175 -0.130685
			 0.511298 -0.796785 -0.322037
			 0.407888 -0.809370 -0.422548
			 0.593796 -0.778628 -0.202840
			 0.560365 -0.782028 -0.272805
			 0.654126 -0.737821 -0.166549
			 0.791763 -0.600877 -0.109809
			 0.861973 -0.506455 -0.022493
			-0.325725 -0.619576 -0.714163
			-0.393102 -0.630518 -0.669267
			-0.412507 -0.681772 -0.604173
			-0.405493 -0.651963 -0.640718
			-0.291816 -0.551441 -0.781509
			-0.235006 -0.651210 -0.721594
			-0.286921 -0.580678 -0.761899
			-0.055402 -0.653229 -0.755131
			 0.076277 -0.637275 -0.766852
			 0.015922 -0.731850 -0.681279
			 0.159563 -0.723121 -0.672038
			 0.451491 -0.669634 -0.589700
			 0.297189 -0.835822 -0.461607
			 0.328571 -0.809866 -0.485961
			 0.264845 -0.829361 -0.491953
			 0.423981 -0.760831 -0.491301
			 0.186579 -0.826394 -0.531282
			-0.462902  0.021616  0.886146
			-0.627913 -0.056052  0.776263
			-0.677192  0.028798  0.735242
			-0.669140 -0.012486  0.743032
			-0.616825  0.062928  0.784581
			-0.595373  0.116098  0.795017
			-0.227171  0.419199  0.879014
			-0.305338  0.353604  0.884157
			-0.034909  0.402377  0.914808
			 0.082533  0.304661  0.948878
			-0.140860  0.455036  0.879262
			-0.367011  0.175978  0.913419
			-0.484054  0.118133  0.867027
			-0.595018 -0.048940  0.802221
			-0.618968 -0.098744  0.779184
			-0.511049  0.048457  0.858185
			-0.771694 -0.324049  0.547248
			-0.709549 -0.116358  0.694983
			-0.808970 -0.226125  0.542620
			-0.774834 -0.297318  0.557883
			-0.867583 -0.351580  0.351697
			-0.686456 -0.488723  0.538450
			-0.602298 -0.475267  0.641373
			-0.694954 -0.603573  0.390818
			-0.640886 -0.587719  0.493813
			-0.664473 -0.702200  0.255718
			-0.406920 -0.908147  0.098412
			-0.379139 -0.924287  0.044129
			-0.322387 -0.946608  0.000403
			-0.411247 -0.904970  0.109112
			-0.450732 -0.880193 -0.148664
			-0.567362 -0.751398  0.336900
			-0.608525 -0.790609  0.068081
			-0.529863 -0.842420 -0.097842
			-0.133175 -0.985227  0.107667
			-0.273679 -0.958609 -0.078542
			-0.244942 -0.968138 -0.052076
			-0.677883 -0.729213  0.093400
			-0.633014 -0.744489  0.212203
			 0.145168  0.611550  0.777775
			-0.066819  0.509584  0.857822
			 0.238889  0.520659  0.819662
			 0.440193  0.541577  0.716188
			 0.343664  0.623439  0.702296
			 0.540203  0.616512  0.572795
			 0.606509  0.528183  0.594280
			 0.701395  0.535653  0.470235
			 0.649551  0.489632  0.581673
			 0.584413  0.533354  0.611551
			 0.644294  0.551090  0.530268
			 0.648389  0.407541  0.643042
			 0.682109  0.325170  0.654975
			 0.635287  0.432064  0.640103
			 0.801028  0.008454  0.598567
			 0.780504  0.234400  0.579543
			 0.795021 -0.195541  0.574200
			 0.881730 -0.121836  0.455750
			 0.869163  0.312039  0.383651
			 0.836619  0.311109  0.450865
			 0.880797 -0.068868  0.468459
			 0.858087  0.086545  0.506158
			 0.803317  0.275784  0.527849
			 0.100376 -0.994942 -0.003991
			 0.057675 -0.814262 -0.577625
			 0.017968 -0.943133 -0.331930
			-0.183145 -0.894621 -0.407567
			-0.180790 -0.743198 -0.644183
			-0.303203 -0.785944 -0.538850
			-0.349297 -0.791984 -0.500753
			 0.963425  0.006433  0.267901
			 0.913792 -0.402330  0.055806
			 0.962831 -0.038766  0.267307
			 0.958457 -0.232301  0.165516
			 0.466237 -0.824338 -0.321076
			 0.269024 -0.847738 -0.457128
			 0.332647 -0.833616 -0.440942
			 0.316523 -0.864606 -0.390218
			 0.587960 -0.788972 -0.178397
			 0.676081 -0.714274 -0.180907
			 0.596879 -0.774575 -0.209210
			 0.757913 -0.642054 -0.115476
			 0.842776 -0.537942 -0.018616
			-0.494853 -0.696565 -0.519536
			-0.638623 -0.713806 -0.287475
			-0.631444 -0.707655 -0.317023
			-0.449318 -0.677048 -0.582854
			-0.291751 -0.595326 -0.748644
			-0.468562 -0.788421 -0.398550
			-0.521675 -0.748080 -0.410161
			-0.574981 -0.744772 -0.338691
			-0.572061 -0.736594 -0.360799
			-0.583789 -0.730849 -0.353626
			-0.289559 -0.656246 -0.696776
			-0.218016 -0.759253 -0.613191
			-0.374836 -0.600245 -0.706544
			-0.032398 -0.814526 -0.579221
			 0.049369 -0.825277 -0.562567
			 0.250762 -0.858485 -0.447349
			 0.325832 -0.825989 -0.459973
			 0.086761 -0.772407 -0.629174
			 0.128884 -0.814132 -0.566196
			 0.218849 -0.850620 -0.478070
			 0.055301 -0.847662 -0.527646
			 0.098954 -0.865220 -0.491530
			 0.094617 -0.792783 -0.602115
			 0.003994 -0.828926 -0.559344
			-0.805663  0.002369  0.592370
			-0.854398  0.014327  0.519421
			-0.651932 -0.038165  0.757316
			-0.777347 -0.102028  0.620744
			-0.571416 -0.110709  0.813159
			-0.608017  0.139950  0.781492
			-0.559158  0.068050  0.826264
			 0.715707  0.331545  0.614688
			-0.135865  0.294295  0.946008
			 0.721947  0.245222  0.647038
			-0.417892  0.112770  0.901471
			-0.286935  0.266665  0.920086
			-0.477377  0.069064  0.875980
			-0.495247  0.096757  0.863347
			-0.588815  0.022321  0.807959
			-0.473969 -0.125459  0.871558
			-0.586227 -0.167615  0.792618
			-0.456515  0.148327  0.877265
			-0.900471 -0.358871  0.245690
			-0.908166 -0.293890  0.298100
			-0.890101 -0.082368  0.448258
			-0.963576 -0.138018  0.229067
			-0.819519 -0.433462  0.374832
			-0.881014 -0.403171  0.247524
			-0.916879 -0.383365  0.111198
			-0.933257 -0.358923  0.014358
			-0.752508 -0.609078  0.250511
			-0.739107 -0.667779  0.088271
			-0.394642 -0.892531 -0.218280
			-0.364869 -0.891840 -0.267379
			-0.288986 -0.889375 -0.354259
			-0.632462 -0.767758 -0.102661
			-0.152487 -0.963226 -0.221232
			-0.665859 -0.741417 -0.083262
			-0.672540 -0.718350 -0.177944
			-0.724318 -0.688214 -0.041527
			 0.434271  0.509318  0.742970
			 0.130981  0.546175  0.827367
			 0.318406  0.613859  0.722353
			 0.087919  0.536559  0.839270
			 0.641420  0.489288  0.590912
			 0.391673  0.459683  0.797047
			 0.538967  0.433823  0.722019
			 0.812033  0.423162  0.401915
			 0.731598  0.500366  0.463032
			 0.518980  0.459026  0.721079
			 0.583022  0.551959  0.596176
			 0.526697  0.553955  0.644767
			 0.576117  0.457331  0.677449
			 0.671228  0.327910  0.664777
			 0.498584  0.462246  0.733309
			 0.485381  0.553584  0.676720
			 0.606132  0.483103  0.631835
			 0.712078  0.150154  0.685856
			 0.699864 -0.048926  0.712598
			 0.718921 -0.118684  0.684885
			 0.868750 -0.216412  0.445464
			 0.912774 -0.238820  0.331375
			 0.928393 -0.105821  0.356215
			 0.881856 -0.110908  0.458290
			 0.804543 -0.063534  0.590486
			 0.888017  0.212860  0.407574
			 0.864985  0.082667  0.494941
			 0.919496 -0.382463  0.090826
			 0.965482  0.152584  0.211098
			 0.982657  0.047968  0.179120
			 0.982704 -0.144881  0.115335
			 0.519354 -0.809903 -0.272633
			 0.408999 -0.814850 -0.410780
			 0.202937 -0.848754 -0.488297
			 0.309076 -0.832486 -0.459825
			 0.416951 -0.803435 -0.425021
			 0.169143 -0.796663 -0.580275
			 0.054695 -0.774248 -0.630515
			 0.735351 -0.668543 -0.110944
			 0.653996 -0.732725 -0.188157
			 0.822242 -0.568433 -0.028326
			 0.930530 -0.360693  0.063353
			-0.736223 -0.666020 -0.119972
			-0.620817 -0.642365 -0.449392
			-0.780263 -0.607182 -0.150062
			-0.723752 -0.664505 -0.186053
			-0.401216 -0.617927 -0.676160
			-0.369986 -0.755922 -0.540085
			-0.167989 -0.825928 -0.538165
			-0.283207 -0.867608 -0.408718
			-0.157773 -0.816018 -0.556078
			-0.620055 -0.536428 -0.572517
			-0.026399 -0.857708 -0.513459
			-0.093137 -0.646104 -0.757545
			-0.054192 -0.742185 -0.668001
			-0.091650 -0.656216 -0.748987
			-0.019401 -0.722841 -0.690742
			 0.092438 -0.770110 -0.631179
			 0.170958 -0.889857 -0.422999
			 0.100396 -0.886080 -0.452529
			 0.260954 -0.880388 -0.396004
			 0.210888 -0.867972 -0.449612
			 0.154475 -0.605972 -0.780343
			-0.002991 -0.654729 -0.755857
			 0.165587 -0.680822 -0.713486
			-0.949799 -0.058955  0.307255
			-0.931180 -0.148265  0.333049
			-0.725035 -0.210326  0.655811
			-0.672677 -0.061828  0.737349
			-0.834549 -0.282079  0.473243
			-0.432358 -0.148431  0.889401
			-0.384727 -0.131419  0.913627
			-0.462195 -0.237991  0.854246
			-0.430803 -0.206258  0.878559
			-0.475215 -0.021611  0.879604
			-0.580626  0.140612  0.801937
			-0.667185 -0.039919  0.743822
			-0.431090  0.115655  0.894866