<?xml version="1.0"?>
<VTKFile type="PolyData" version="0.1" byte_order="LittleEndian" compressor="vtkZLibDataCompressor">
	<PolyData>
		<Piece NumberOfPoints="65" NumberOfVerts="0" NumberOfLines="0" NumberOfStrips="0" NumberOfPolys="126">
		<PointData Normals="Normals">
		<DataArray type="Float32" Name="Normals" NumberOfComponents="3" format="ascii">
			 0.125313  0.970835  0.204391
			-0.415886  0.854322 -0.311724
			-0.384101  0.799662  0.461526
			 0.300854  0.953602  0.011419
			 0.348987  0.762317  0.545051
			 0.106861  0.415729  0.903189
			 0.066189  0.971918 -0.225820
			-0.798862  0.601322 -0.015224
			-0.027330  0.680764 -0.731992
			-0.059100  0.897654 -0.436721
			-0.439386  0.639542 -0.630813
			-0.746213  0.509261 -0.428741
			-0.234561  0.382135  0.893842
			 0.201064  0.977815 -0.058743
			 0.058700  0.355338  0.932893
			 0.376811  0.919803  0.109435
			 0.257761  0.752496  0.606060
			-0.649812 -0.090349  0.754706
			-0.970131  0.193340 -0.146512
			-0.241732  0.346438 -0.906392
			 0.201221  0.596659 -0.776858
			 0.301970  0.340311 -0.890507
			 0.160070  0.839922 -0.518564
			-0.679112  0.041580 -0.732856
			-0.902679  0.091315 -0.420515
			 0.007841 -0.244105  0.969717
			 0.021894  0.069582  0.997336
			 0.202450 -0.023893  0.979001
			 0.130886  0.377436  0.916739
			 0.304135  0.920570 -0.245058
			 0.324512  0.943913  0.060995
			 0.619125  0.590500  0.517682
			-0.354618 -0.754084  0.552814
			-0.033684 -0.655553  0.754398
			-0.735214 -0.677795  0.007357
			 0.011540 -0.476152 -0.879288
			 0.237657 -0.188839 -0.952816
			 0.319318  0.295363 -0.900442
			 0.162408  0.577303 -0.800216
			 0.484358 -0.010218 -0.874810
			 0.520520 -0.371682 -0.768707
			 0.548589 -0.027486 -0.835640
			 0.230626  0.833542 -0.502015
			-0.421793 -0.821430 -0.383852
			-0.210464 -0.659069 -0.722034
			-0.178579 -0.550520  0.815499
			 0.109190 -0.348793  0.930817
			 0.612039 -0.160610  0.774347
			 0.534386 -0.069163  0.842406
			 0.827707  0.523360 -0.202473
			 0.852752 -0.221179  0.473175
			-0.088054 -0.890145  0.447089
			 0.214563 -0.970950  0.105920
			 0.402803 -0.764589 -0.503144
			 0.310053 -0.891156 -0.331222
			 0.547216  0.200082 -0.812725
			 0.481250 -0.454195 -0.749736
			 0.819873 -0.326064 -0.470628
			 0.339489 -0.841865 -0.419536
			 0.336683 -0.733998  0.589824
			 0.727824 -0.579650  0.366439
			 0.943997 -0.227179  0.239290
			 0.136863 -0.987340 -0.080180
			 0.317139 -0.786748 -0.529577
			 0.644655 -0.738141 -0.198919
		</DataArray>
	</PointData>
	<Points>
		<DataArray type="Float32" NumberOfComponents="3" format="ascii">
			-0.005640 -0.017322  0.013969
			-0.009152 -0.018579  0.011381
			-0.008342 -0.018183  0.014597
			-0.004191 -0.018032  0.013093
			-0.001362 -0.019175  0.013396
			-0.007001 -0.018645  0.014963
			-0.005005 -0.017888  0.012336
			-0.012866 -0.021554  0.012787
			-0.007563 -0.020459  0.007417
			-0.007020 -0.018929  0.009347
			-0.010093 -0.022503  0.006132
			-0.011256 -0.023327  0.006809
			-0.012424 -0.022626  0.016288
			-0.002906 -0.018125  0.011902
			-0.003985 -0.022220  0.015605
			-0.001115 -0.018735  0.011972
			-0.000022 -0.020573  0.014252
			-0.013952 -0.025192  0.016289
			-0.015117 -0.028125  0.009671
			-0.011297 -0.026951  0.003743
			-0.004254 -0.020008  0.008510
			-0.003941 -0.023957  0.005821
			-0.002581 -0.018806  0.010179
			-0.012474 -0.028571  0.004128
			-0.014417 -0.028937  0.007008
			-0.008494 -0.023872  0.016299
			-0.005123 -0.023686  0.016152
			-0.001224 -0.025076  0.015969
			-0.000670 -0.022598  0.016138
			-0.000975 -0.018851  0.010678
			 0.000064 -0.019271  0.011494
			 0.003124 -0.020047  0.012583
			-0.015018 -0.029889  0.011884
			-0.009016 -0.025610  0.015160
			-0.014657 -0.031399  0.008937
			-0.010598 -0.029688  0.003593
			-0.008555 -0.028758  0.003451
			-0.000543 -0.023223  0.007838
			 0.000393 -0.020715  0.009054
			 0.000435 -0.025272  0.008175
			-0.005145 -0.026982  0.004535
			-0.002120 -0.025547  0.006657
			 0.000162 -0.019606  0.010179
			-0.013586 -0.031691  0.006527
			-0.012061 -0.030866  0.004507
			-0.005093 -0.026480  0.015521
			-0.002014 -0.026752  0.016319
			 0.000251 -0.026604  0.014827
			 0.001188 -0.023096  0.015732
			 0.003037 -0.020042  0.009983
			 0.001687 -0.025174  0.014231
			-0.005381 -0.027753  0.013416
			-0.004604 -0.028868  0.008963
			-0.009495 -0.029858  0.004318
			-0.010578 -0.030830  0.005160
			 0.003134 -0.020914  0.009476
			-0.002701 -0.027032  0.006592
			 0.002668 -0.026728  0.009571
			-0.003522 -0.028118  0.007517
			 0.000311 -0.028088  0.014934
			 0.001560 -0.028112  0.012979
			 0.002534 -0.026384  0.012282
			-0.001446 -0.028733  0.010162
			-0.000805 -0.028194  0.008836
			 0.002377 -0.027334  0.009885
		</DataArray>
	</Points>
			<Polys>
				<DataArray type="Int32" Name="connectivity" format="ascii">
					0 1 2 
					3 0 4 
					5 0 2 
					0 6 1 
					5 4 0 
					6 0 3 
					7 2 1 
					8 1 9 
					1 8 10 
					1 10 11 
					7 1 11 
					9 1 6 
					2 12 5 
					7 12 2 
					4 13 3 
					13 6 3 
					4 5 14 
					4 15 13 
					16 15 4 
					14 16 4 
					14 5 12 
					13 9 6 
					17 7 18 
					12 7 17 
					7 11 18 
					19 10 8 
					8 20 21 
					19 8 21 
					9 22 8 
					22 20 8 
					13 22 9 
					19 11 10 
					23 11 19 
					11 24 18 
					24 11 23 
					12 17 25 
					12 25 26 
					14 12 26 
					22 13 15 
					26 27 14 
					27 28 14 
					14 28 16 
					15 29 22 
					29 15 30 
					16 30 15 
					16 28 31 
					31 30 16 
					17 18 32 
					33 17 32 
					33 25 17 
					18 34 32 
					24 34 18 
					35 19 36 
					23 19 35 
					19 21 36 
					37 21 20 
					38 20 22 
					20 38 37 
					39 21 37 
					21 40 36 
					41 40 21 
					41 21 39 
					42 22 29 
					42 38 22 
					43 23 44 
					23 43 24 
					44 23 35 
					24 43 34 
					25 33 45 
					45 26 25 
					45 46 26 
					46 27 26 
					27 47 48 
					27 46 47 
					28 27 48 
					48 31 28 
					29 30 42 
					31 49 30 
					49 42 30 
					50 49 31 
					31 48 50 
					33 32 51 
					32 34 52 
					52 51 32 
					51 45 33 
					43 52 34 
					35 36 53 
					54 44 35 
					54 35 53 
					36 40 53 
					55 37 38 
					55 39 37 
					42 49 38 
					49 55 38 
					56 41 39 
					55 57 39 
					57 56 39 
					58 53 40 
					40 41 56 
					40 56 58 
					44 54 43 
					54 52 43 
					51 46 45 
					59 47 46 
					51 59 46 
					60 47 59 
					47 60 50 
					50 48 47 
					49 61 57 
					61 49 50 
					49 57 55 
					61 50 60 
					51 52 62 
					62 59 51 
					58 52 54 
					62 52 58 
					58 54 53 
					58 56 63 
					56 57 63 
					64 57 61 
					57 64 63 
					62 58 63 
					62 60 59 
					64 61 60 
					60 62 64 
					63 64 62 
				</DataArray>
				<DataArray type="Int32" Name="offsets" format="ascii">
					3 6 9 12 15 18 21 24 27 30 33 36 39 42 45 48 51 54 57 60 63 66 69 72 75 78 81 84 87 90 93 96 99 102 105 108 111 114 117 120 123 126 129 132 135 138 141 144 147 150 153 156 159 162 165 168 171 174 177 180 183 186 189 192 195 198 201 204 207 210 213 216 219 222 225 228 231 234 237 240 243 246 249 252 255 258 261 264 267 270 273 276 279 282 285 288 291 294 297 300 303 306 309 312 315 318 321 324 327 330 333 336 339 342 345 348 351 354 357 360 363 366 369 372 375 378 
				</DataArray>
			</Polys>
		</Piece>
	</PolyData>
</VTKFile>
