<?xml version="1.0"?>
<VTKFile type="PolyData" version="0.1" byte_order="LittleEndian" compressor="vtkZLibDataCompressor">
	<PolyData>
		<Piece NumberOfPoints="1434" NumberOfVerts="0" NumberOfLines="0" NumberOfStrips="0" NumberOfPolys="2864">
		<PointData Normals="Normals">
		<DataArray type="Float32" Name="Normals" NumberOfComponents="3" format="ascii">
			 0.979016 -0.124470  0.161350
			 0.930287  0.112590  0.349126
			 0.960184 -0.088768  0.264891
			 0.966365 -0.247170  0.071028
			 0.974948  0.011119  0.222154
			 0.980848 -0.192649 -0.028701
			 0.958875 -0.277805  0.058162
			 0.928531 -0.342613 -0.142993
			 0.908518  0.094288  0.407068
			 0.916524  0.189082  0.352464
			 0.821199  0.267906  0.503844
			 0.954684 -0.276183  0.110909
			 0.894994 -0.147436  0.421009
			 0.890036 -0.346284  0.296518
			 0.894585 -0.438748 -0.084960
			 0.900139 -0.433086 -0.046752
			 0.881342 -0.468683 -0.059774
			 0.988301  0.020116  0.151183
			 0.960266 -0.215134 -0.177784
			 0.999038 -0.043380  0.006397
			 0.879264 -0.431704 -0.201312
			 0.879840 -0.424235 -0.214257
			 0.774112 -0.580027 -0.253613
			 0.862089  0.052834  0.503995
			 0.826171  0.307943  0.471819
			 0.901664  0.252064  0.351378
			 0.967026  0.165352  0.193700
			 0.776431  0.214844  0.592450
			 0.691289  0.380781  0.614105
			 0.697893  0.352395  0.623509
			 0.822215 -0.562058  0.089739
			 0.849853 -0.207822  0.484314
			 0.824925 -0.425886  0.371644
			 0.726541 -0.659779  0.191909
			 0.741722 -0.669083 -0.046661
			 0.764377 -0.623899 -0.162720
			 0.712801 -0.619084 -0.329622
			 0.996040  0.088706  0.005964
			 0.851099 -0.494630 -0.175990
			 0.977884 -0.063998 -0.199118
			 0.947963 -0.228423 -0.221784
			 0.684903 -0.686596 -0.243915
			 0.672447 -0.704633 -0.226510
			 0.850829 -0.008829  0.525368
			 0.853817  0.347619  0.387502
			 0.747623  0.448050  0.490216
			 0.943477  0.239956  0.228631
			 0.719112  0.102128  0.687348
			 0.697677  0.292734  0.653876
			 0.790292  0.014087  0.612568
			 0.838020 -0.060677  0.542255
			 0.562943  0.507815  0.652088
			 0.584447  0.556315  0.590708
			 0.630908  0.319808  0.706879
			 0.704411  0.340193  0.622956
			 0.619803 -0.784407  0.023454
			 0.877964 -0.231374  0.419100
			 0.769334 -0.491044  0.408659
			 0.634009 -0.737792  0.231723
			 0.455393 -0.889460  0.038429
			 0.556455 -0.807640 -0.195129
			 0.654652 -0.703598 -0.276371
			 0.975622  0.195290  0.100119
			 0.998758  0.049800 -0.001646
			 0.736673 -0.641844 -0.212954
			 0.891555 -0.397834 -0.216467
			 0.993695  0.076073 -0.082365
			 0.962077 -0.019132 -0.272105
			 0.929364 -0.156595 -0.334306
			 0.901001 -0.098883 -0.422397
			 0.623039 -0.752130 -0.214765
			 0.619640 -0.759989 -0.196120
			 0.502643 -0.817741 -0.280446
			 0.607314 -0.755304 -0.246344
			 0.912762  0.319009  0.255146
			 0.788785  0.410802  0.457231
			 0.834828  0.390659  0.387876
			 0.745718  0.447285  0.493802
			 0.631545  0.582098  0.512165
			 0.678482  0.265817  0.684839
			 0.715306 -0.136059  0.685438
			 0.657568 -0.225444  0.718874
			 0.654542 -0.050570  0.754332
			 0.593578  0.091829  0.799520
			 0.715394 -0.267101  0.645653
			 0.839478 -0.350399  0.415327
			 0.724451 -0.441824  0.529115
			 0.472199  0.291732  0.831818
			 0.456814  0.463158  0.759477
			 0.483259  0.616645  0.621458
			 0.487740  0.661349  0.569848
			 0.508942  0.640964  0.574581
			 0.513840  0.184380  0.837838
			 0.531567  0.225798  0.816365
			 0.821584 -0.412133  0.393885
			 0.710526 -0.521112  0.472857
			 0.611585 -0.676705  0.409920
			 0.520234 -0.811341  0.266612
			 0.408797 -0.908770  0.083799
			 0.214254 -0.974695  0.063756
			 0.396535 -0.915483  0.068192
			 0.574473 -0.808953 -0.124806
			 0.611532 -0.787197 -0.079689
			 0.904977  0.338676  0.257516
			 0.974673  0.223368  0.010949
			 0.754896 -0.598889 -0.267325
			 0.656050 -0.733541 -0.177527
			 0.646065 -0.728759 -0.226960
			 0.840985 -0.407053 -0.356445
			 0.902914 -0.212626 -0.373547
			 0.968913  0.075451 -0.235614
			 0.904466 -0.039512 -0.424712
			 0.908641 -0.103006 -0.404675
			 0.869476 -0.065277 -0.489644
			 0.478314 -0.869585 -0.122630
			 0.373744 -0.889760 -0.261997
			 0.503918 -0.830463 -0.237480
			 0.610002 -0.781050 -0.133637
			 0.582148 -0.800389 -0.143110
			 0.835270  0.383343  0.394173
			 0.727362  0.473445  0.496783
			 0.539763  0.653076  0.531175
			 0.500748  0.704411  0.503047
			 0.508355  0.649012  0.566002
			 0.591338 -0.469793  0.655449
			 0.536439 -0.336829  0.773809
			 0.537018 -0.533803  0.653197
			 0.516447 -0.175648  0.838111
			 0.429137  0.047982  0.901964
			 0.412293 -0.045327  0.909923
			 0.464602 -0.124767  0.876686
			 0.587536 -0.562608  0.581612
			 0.508133 -0.715869  0.478888
			 0.395894  0.151796  0.905663
			 0.347435  0.303208  0.887330
			 0.402510  0.483317  0.777426
			 0.576913  0.522432  0.627883
			 0.454873  0.584623  0.671794
			 0.424853  0.690788  0.585075
			 0.528522  0.646468  0.550221
			 0.390403 -0.861338  0.325089
			 0.232305 -0.960544  0.152938
			 0.179723 -0.971790  0.152720
			 0.189200 -0.972144  0.138346
			 0.330595 -0.912818  0.239731
			 0.472980 -0.878393  0.068665
			 0.844032  0.413753  0.341201
			 0.914216  0.367431  0.170893
			 0.968109  0.170465 -0.183591
			 0.799277 -0.386372 -0.460297
			 0.715082 -0.579912 -0.390334
			 0.718924 -0.506546 -0.475982
			 0.671540 -0.688778 -0.273165
			 0.854649 -0.158070 -0.494559
			 0.917320  0.018838 -0.397705
			 0.904602 -0.083167 -0.418065
			 0.278269 -0.955107  0.101673
			 0.300941 -0.939457 -0.163873
			 0.260082 -0.955976 -0.135895
			 0.171029 -0.949900 -0.261607
			 0.565165 -0.824720 -0.020637
			 0.662636 -0.691065 -0.288691
			 0.663314 -0.739796 -0.112770
			 0.730442  0.521490  0.441025
			 0.543151  0.631745  0.553069
			 0.573682  0.598249  0.559452
			 0.404707  0.750563  0.522367
			 0.446804 -0.713819  0.539285
			 0.486201 -0.674413  0.555676
			 0.310109 -0.483812  0.818388
			 0.370254 -0.652804  0.660877
			 0.311167 -0.344384  0.885762
			 0.455240 -0.105465  0.884101
			 0.328988 -0.173382  0.928281
			 0.290711 -0.200584  0.935550
			 0.203156 -0.935409  0.289374
			 0.469592  0.023355  0.882575
			 0.291880  0.119900  0.948910
			 0.441963  0.151282  0.884185
			 0.300557  0.202874  0.931937
			 0.317699  0.337204  0.886206
			 0.380105  0.496947  0.780105
			 0.544323  0.497187  0.675661
			 0.966796  0.161064  0.198401
			 0.784764  0.367881  0.498808
			 0.334565  0.634556  0.696710
			 0.358581  0.812338  0.459920
			 0.259532  0.734507  0.627011
			 0.271114  0.817815  0.507618
			 0.639060  0.525004  0.562114
			 0.485476  0.723941  0.490124
			 0.259534 -0.956275  0.134830
			 0.322141 -0.904963  0.277969
			 0.219299 -0.963004  0.156622
			 0.381577 -0.899138  0.214360
			 0.542718 -0.822645  0.169446
			 0.326318 -0.937699  0.119317
			 0.374337 -0.883441  0.281786
			 0.783495  0.516120  0.346058
			 0.937577  0.323616 -0.127369
			 0.886017  0.461593  0.043663
			 0.805740  0.550210  0.219207
			 0.931949  0.130567 -0.338264
			 0.778481 -0.151949 -0.608999
			 0.766188 -0.337252 -0.547008
			 0.710480 -0.336183 -0.618222
			 0.729975 -0.328793 -0.599192
			 0.716363 -0.170643 -0.676539
			 0.700536 -0.426061 -0.572469
			 0.865548 -0.023395 -0.500279
			 0.779795 -0.073508 -0.621704
			 0.398293 -0.891612  0.215387
			 0.274006 -0.960986  0.037756
			-0.033401 -0.991355 -0.126888
			 0.088706 -0.985246 -0.146361
			 0.385610 -0.921066 -0.054250
			 0.149402 -0.987181  0.056155
			 0.101271 -0.993869  0.044371
			-0.061037 -0.992285 -0.107915
			 0.624392 -0.781087  0.006154
			 0.498161 -0.866418 -0.034000
			 0.728393 -0.582681 -0.360453
			 0.726913 -0.474240 -0.496682
			 0.491760 -0.862738 -0.117707
			 0.616400 -0.767046 -0.178018
			 0.667480  0.590474  0.453664
			 0.442000  0.737490  0.510632
			 0.576335  0.665896  0.473730
			 0.547569  0.671858  0.498774
			 0.359239  0.848190  0.389257
			 0.213149  0.918366  0.333424
			 0.193852  0.933163  0.302701
			 0.330234  0.783064  0.527026
			 0.162804  0.898572  0.407509
			 0.347582 -0.821710  0.451641
			 0.075780 -0.659870  0.747549
			 0.155082 -0.718604  0.677907
			 0.192215 -0.813146  0.549405
			 0.330937 -0.414333  0.847826
			 0.496998 -0.302934  0.813156
			 0.438576 -0.404230  0.802652
			 0.470161 -0.182848  0.863432
			 0.477456 -0.256930  0.840252
			 0.355827 -0.901814  0.245193
			 0.101578 -0.982986  0.153034
			 0.496051 -0.262654  0.827615
			 0.498670 -0.006231  0.866770
			 0.409364  0.020418  0.912142
			 0.117574 -0.031557  0.992563
			 0.065878 -0.199964  0.977586
			 0.281315 -0.106416  0.953697
			 0.436451  0.092642  0.894946
			 0.451432 -0.038760  0.891463
			 0.247502  0.261991  0.932794
			 0.177422  0.166346  0.969974
			 0.157026  0.061577  0.985673
			 0.334263  0.470482  0.816648
			 0.271809  0.336616  0.901559
			 0.262625  0.307215  0.914684
			 0.273798  0.393472  0.877619
			 0.893464  0.278062  0.352710
			 0.325253  0.538245  0.777498
			 0.275184  0.564319  0.778343
			 0.506367  0.498429  0.703677
			 0.170514  0.642054  0.747457
			 0.156824  0.919525  0.360389
			 0.159493  0.891506  0.424003
			 0.146596  0.788183  0.597726
			 0.588229 -0.767094  0.256034
			 0.620408 -0.774055  0.126224
			 0.172464 -0.938218  0.300006
			 0.677763 -0.709553  0.192799
			 0.389872 -0.818765  0.421454
			 0.649940 -0.709824  0.271529
			 0.720069 -0.675796  0.157483
			 0.852983 -0.516842  0.072759
			 0.693683  0.636399  0.337342
			 0.873776  0.233407 -0.426658
			 0.915931  0.360833 -0.175696
			 0.880396  0.469544 -0.066566
			 0.704689  0.651066  0.282004
			 0.808845  0.572313 -0.135012
			 0.731248  0.664777  0.152801
			 0.850603  0.054214 -0.523006
			 0.902619  0.020697 -0.429943
			 0.649500 -0.072174 -0.756928
			 0.700458 -0.147936 -0.698193
			 0.672091 -0.092974 -0.734608
			 0.717277 -0.171893 -0.675253
			 0.687586 -0.004355 -0.726090
			 0.629825 -0.129176 -0.765920
			 0.745928 -0.078640 -0.661368
			 0.804077  0.033883 -0.593559
			 0.818784  0.008956 -0.574031
			 0.824972  0.008337 -0.565112
			 0.435247 -0.897796 -0.067248
			 0.262070 -0.941887 -0.210164
			-0.070883 -0.984509 -0.160370
			-0.369552 -0.923871 -0.099466
			-0.370102 -0.924970 -0.086344
			 0.380882 -0.923868 -0.037374
			-0.002393 -0.997307  0.073305
			-0.098400 -0.987410  0.123849
			-0.019469 -0.977481  0.210123
			 0.263251 -0.958871  0.106141
			 0.394579 -0.918747  0.014534
			-0.227093 -0.969767  0.089330
			 0.780247 -0.349018 -0.519038
			 0.828220 -0.317261 -0.461949
			 0.779595 -0.529222 -0.334897
			 0.457218 -0.887426 -0.058545
			 0.609320 -0.754773 -0.242996
			 0.744477 -0.551825 -0.375823
			 0.555840  0.725753  0.405371
			 0.059763  0.965324  0.254123
			 0.078694  0.943571  0.321685
			 0.474046  0.781498  0.405637
			 0.181106  0.882169  0.434717
			 0.095010 -0.928168  0.359829
			-0.052805 -0.843601  0.534368
			 0.287060 -0.564014  0.774264
			 0.192072 -0.769636  0.608909
			-0.005537 -0.896836  0.442328
			 0.364082 -0.582404  0.726808
			 0.291887 -0.529676  0.796395
			 0.082286 -0.776531  0.624682
			 0.373474 -0.420345  0.826938
			 0.412658 -0.485208  0.770900
			 0.839712 -0.525947  0.135142
			 0.494619 -0.319212  0.808366
			 0.357976 -0.650086  0.670255
			 0.355623 -0.019115  0.934434
			 0.287154 -0.307418  0.907214
			 0.295194 -0.215870  0.930731
			-0.100508 -0.323879  0.940745
			-0.088053 -0.211043  0.973503
			-0.177367 -0.530921  0.828652
			 0.094731 -0.393317  0.914510
			 0.324183 -0.097971  0.940908
			 0.343151 -0.447670  0.825735
			 0.120591  0.113757  0.986163
			-0.021185 -0.016340  0.999642
			 0.213363  0.505786  0.835857
			 0.147507  0.310664  0.939005
			 0.194602  0.412086  0.890121
			 0.143784  0.168966  0.975078
			 0.072954  0.539385  0.838893
			-0.004293  0.651008  0.759058
			 0.031490  0.834501  0.550106
			 0.165942  0.816086  0.553595
			 0.048948  0.948145  0.314047
			 0.092737  0.732625  0.674285
			 0.631507 -0.774667 -0.033026
			 0.547994 -0.826425 -0.129325
			 0.022295 -0.892653  0.450193
			 0.218197 -0.786720  0.577462
			 0.106823 -0.896128  0.430748
			 0.459845 -0.730290  0.505192
			 0.550223 -0.735098  0.396087
			 0.605616 -0.767252  0.211077
			 0.464463 -0.884839  0.036526
			 0.561519  0.777375  0.283520
			 0.592753  0.753123  0.285394
			 0.888209  0.333962 -0.315523
			 0.916658  0.114911 -0.382797
			 0.644163  0.764879 -0.003833
			 0.774080  0.489075 -0.402003
			 0.681113  0.655812 -0.325570
			 0.643681 -0.151456 -0.750158
			 0.626257 -0.016230 -0.779448
			 0.609803 -0.013397 -0.792440
			 0.680495  0.029785 -0.732148
			 0.702778  0.048929 -0.709724
			 0.748669 -0.152605 -0.645140
			 0.649971  0.019658 -0.759705
			 0.635046 -0.099351 -0.766059
			 0.648065 -0.177430 -0.740628
			 0.633045 -0.223722 -0.741082
			 0.739996  0.010674 -0.672526
			 0.705105 -0.076185 -0.704999
			 0.773568 -0.023563 -0.633275
			 0.811523  0.093214 -0.576838
			 0.302362 -0.942000 -0.145647
			 0.066967 -0.996142 -0.056716
			-0.248883 -0.963882 -0.094811
			-0.423686 -0.905758  0.009624
			-0.481342 -0.875662 -0.039064
			-0.376759 -0.921135  0.097792
			-0.469538 -0.881743  0.045424
			-0.167880 -0.971592  0.166808
			-0.130613 -0.971312  0.198729
			-0.054995 -0.959872  0.274992
			 0.075669 -0.974353  0.211921
			 0.403615 -0.897304 -0.178716
			 0.365589 -0.912732 -0.182389
			 0.269035 -0.963130 -0.001164
			-0.416630 -0.881436  0.222462
			-0.391133 -0.882748  0.260330
			-0.256301 -0.938430  0.231642
			 0.806968 -0.146021 -0.572259
			 0.811084 -0.310566 -0.495673
			 0.817692 -0.058457 -0.572680
			 0.457944 -0.854069 -0.246684
			 0.640559 -0.545700 -0.540273
			 0.520710 -0.727682 -0.446476
			 0.731688 -0.341630 -0.589849
			 0.097765  0.884434  0.456309
			 0.212757  0.909266  0.357728
			 0.086259  0.852084  0.516248
			 0.243430  0.879772  0.408341
			 0.384484  0.862128  0.330011
			-0.111168 -0.900334  0.420763
			 0.100217 -0.867244  0.487694
			-0.053652 -0.937432  0.344009
			 0.198203 -0.746824  0.634799
			 0.091157 -0.903014  0.419828
			 0.300148 -0.679252  0.669723
			 0.138935 -0.873309  0.466936
			 0.144526 -0.825059  0.546251
			 0.256572 -0.547712  0.796356
			 0.006182 -0.649811  0.760071
			-0.277179 -0.460108  0.843488
			-0.078924 -0.094793  0.992363
			-0.190987 -0.284500  0.939459
			-0.278671 -0.446420  0.850324
			-0.322628 -0.662539  0.675984
			-0.236880 -0.769144  0.593554
			-0.054806 -0.008431  0.998462
			-0.044088 -0.097167  0.994291
			-0.035502  0.467378  0.883345
			-0.009369  0.392965  0.919505
			-0.157368  0.233705  0.959488
			-0.075103  0.060398  0.995345
			-0.233348  0.527086  0.817147
			-0.305326  0.607158  0.733577
			-0.286224  0.711239  0.642039
			-0.259089  0.830972  0.492298
			 0.051040  0.944581  0.324285
			-0.159817  0.898829  0.408123
			-0.022575 -0.812173  0.582979
			 0.213964 -0.709606  0.671326
			 0.189949 -0.778685  0.597971
			 0.178490 -0.796174  0.578142
			 0.402139 -0.758035  0.513486
			 0.430315 -0.855883  0.286869
			 0.298165 -0.843656  0.446477
			 0.315884 -0.940879  0.122329
			-0.013526 -0.999897 -0.004748
			 0.490406  0.866298  0.095027
			 0.400347  0.897535  0.184805
			 0.831618  0.338232 -0.440466
			 0.973968  0.106781 -0.199958
			 0.795397  0.160235 -0.584525
			 0.964343  0.088690 -0.249351
			 0.863381  0.143151 -0.483820
			 0.539263  0.820455 -0.189863
			 0.858475  0.294482 -0.419882
			 0.682490  0.586465 -0.436196
			 0.543347  0.722279 -0.427888
			 0.642611 -0.166419 -0.747901
			 0.650623  0.099090 -0.752908
			 0.753733  0.042961 -0.655775
			 0.672708  0.084959 -0.735015
			 0.573087 -0.051417 -0.817880
			 0.575650  0.021159 -0.817422
			 0.567946 -0.120143 -0.814250
			 0.695673 -0.097031 -0.711775
			 0.502995 -0.127239 -0.854872
			 0.638119 -0.165150 -0.752017
			 0.682724 -0.078900 -0.726404
			 0.806288  0.081130 -0.585933
			 0.821827  0.176393 -0.541744
			-0.264251 -0.951314  0.158663
			-0.366993 -0.905371  0.213588
			-0.513924 -0.849191  0.121475
			-0.482538 -0.858456  0.173810
			-0.495210 -0.858422  0.133714
			-0.130720 -0.954827  0.266866
			 0.198215 -0.952518  0.231128
			 0.845607 -0.530381  0.060372
			 0.351470 -0.936110 -0.012969
			 0.380421 -0.772776 -0.508032
			 0.327447 -0.806151 -0.492848
			 0.349208 -0.849777 -0.394883
			 0.392577 -0.724434 -0.566638
			 0.451190 -0.847751 -0.278830
			 0.282485 -0.925363 -0.252794
			-0.484494 -0.838590  0.249062
			-0.499976 -0.853311  0.147935
			-0.395486 -0.849953  0.348096
			-0.468081 -0.827051  0.311265
			-0.319187 -0.858422  0.401536
			 0.751518 -0.094537 -0.652904
			 0.472214 -0.542632 -0.694669
			 0.643559 -0.266964 -0.717330
			 0.273594  0.924479  0.265491
			 0.099136  0.886840  0.451316
			-0.021133  0.808829  0.587665
			 0.160133  0.937501  0.308950
			 0.246351  0.842349  0.479332
			 0.123661  0.896506  0.425422
			 0.374314  0.834870  0.403584
			 0.088613  0.838919  0.536995
			 0.162081  0.843522  0.512055
			 0.183347  0.863441  0.469951
			 0.274657  0.866817  0.416163
			 0.007591 -0.898886  0.438118
			 0.073686 -0.934237  0.348957
			 0.028701 -0.845147  0.533763
			 0.048356 -0.920287  0.388244
			-0.069058 -0.889306  0.452069
			-0.116705 -0.916802  0.381909
			-0.110938 -0.843513  0.525528
			-0.347220 -0.630615  0.694092
			-0.347787 -0.431885  0.832178
			-0.250122 -0.263242  0.931742
			-0.344702 -0.593975  0.726894
			-0.245905 -0.862437  0.442418
			-0.391165 -0.698670  0.599041
			-0.382021 -0.816317  0.433229
			-0.315692 -0.161895  0.934948
			-0.322288  0.335126  0.885337
			-0.443169  0.403549  0.800468
			-0.234669  0.135025  0.962652
			-0.405581  0.249328  0.879397
			-0.276852 -0.069696  0.958382
			-0.536983  0.550271  0.639415
			-0.626029  0.568316  0.533952
			-0.470555  0.729146  0.496915
			-0.144780  0.909546  0.389570
			-0.444351  0.783772  0.433882
			 0.039611 -0.774189  0.631714
			-0.004178 -0.781862  0.623438
			 0.112148 -0.847150  0.519384
			-0.174607 -0.850273  0.496537
			 0.245443 -0.939872  0.237482
			 0.008760 -0.950158  0.311647
			-0.108813 -0.908751  0.402904
			 0.009744 -0.986309  0.164619
			 0.437483  0.898329 -0.040170
			 0.787323  0.283613 -0.547435
			 0.459583  0.812256 -0.359199
			 0.777112  0.430339 -0.459243
			 0.627411  0.727063 -0.278811
			 0.520065  0.770544 -0.368504
			 0.721113  0.483599 -0.496113
			 0.704838  0.362866 -0.609534
			 0.776161  0.552089 -0.304585
			 0.598769  0.082949 -0.796615
			 0.629220  0.152444 -0.762131
			 0.618572  0.182998 -0.764121
			 0.684188 -0.033869 -0.728518
			 0.641515 -0.076685 -0.763268
			 0.449617 -0.107562 -0.886722
			 0.498494  0.046051 -0.865669
			 0.725449  0.033617 -0.687454
			 0.678169  0.032857 -0.734171
			 0.597572 -0.004921 -0.801800
			 0.487214 -0.109273 -0.866419
			 0.789774  0.231751 -0.567934
			-0.464678 -0.828661  0.312082
			-0.471413 -0.878076  0.082177
			-0.493741 -0.841574  0.219027
			-0.407479 -0.900580  0.151383
			-0.432598 -0.897487  0.085885
			-0.059770 -0.918627  0.390580
			 0.671852 -0.740497 -0.016728
			 0.127462 -0.971934  0.197730
			 0.864237 -0.499003 -0.063963
			 0.170900 -0.978983 -0.111291
			 0.217063 -0.664901 -0.714697
			 0.265077 -0.669997 -0.693425
			 0.443975 -0.747240 -0.494488
			 0.239743 -0.498131 -0.833300
			 0.294837 -0.639530 -0.709980
			 0.365621 -0.826718 -0.427620
			 0.240938 -0.799926 -0.549606
			 0.331381 -0.883884 -0.330055
			-0.492673 -0.834002  0.248424
			-0.503135 -0.863575  0.033078
			-0.639949 -0.763008  0.091021
			-0.574093 -0.774172  0.266598
			-0.546916 -0.744238  0.383397
			-0.474141 -0.751482  0.458765
			-0.377718 -0.801786  0.463108
			-0.307323 -0.814718  0.491719
			-0.201328 -0.858604  0.471451
			 0.570328 -0.299696 -0.764793
			 0.311155 -0.602711 -0.734794
			 0.264411  0.957817  0.112576
			 0.155407  0.943286  0.293360
			 0.161411  0.962217  0.219284
			 0.321433  0.946900 -0.007762
			 0.257414  0.956734  0.135640
			 0.089709  0.867839  0.488680
			 0.363847  0.820698  0.440534
			 0.076163  0.875043  0.478016
			 0.452552  0.814570  0.362867
			 0.225006  0.923292  0.311293
			 0.764141  0.601886  0.231993
			-0.233980 -0.862640  0.448449
			-0.388808 -0.783630  0.484513
			-0.408598 -0.830753  0.378017
			-0.429601 -0.639346  0.637714
			-0.419496 -0.319377  0.849719
			-0.529289 -0.431931  0.730266
			-0.404197 -0.872068  0.275901
			-0.465752 -0.178978  0.866627
			-0.517872 -0.005634  0.855439
			-0.616652  0.176339  0.767232
			-0.657647  0.412880  0.630104
			-0.696415  0.263886  0.667360
			-0.370243  0.190990  0.909089
			-0.583716  0.104479  0.805208
			-0.755768  0.389516  0.526395
			-0.707067  0.545079  0.450495
			-0.733160  0.436848  0.521191
			-0.743264  0.441742  0.502417
			-0.177385  0.871557  0.457082
			-0.482822  0.786588  0.384919
			-0.632595  0.678421  0.373589
			-0.602679  0.722345  0.339111
			-0.279785 -0.819242  0.500562
			 0.424102  0.880796 -0.210561
			 0.470795  0.784073 -0.404451
			 0.571820  0.792053 -0.213714
			 0.639875  0.756599 -0.134605
			 0.639175  0.768875  0.016945
			 0.494541  0.792744 -0.356349
			 0.697812  0.236634 -0.676064
			 0.701504  0.014996 -0.712507
			 0.788948  0.228223 -0.570504
			 0.604150  0.065317 -0.794189
			 0.781531  0.619708  0.071908
			 0.857243  0.502581 -0.112012
			 0.853250  0.275972 -0.442496
			 0.572215  0.164044 -0.803530
			 0.568328  0.105207 -0.816048
			 0.637054  0.124292 -0.760732
			 0.603048  0.126045 -0.787684
			 0.510538  0.215443 -0.832427
			 0.559851  0.107186 -0.821631
			 0.521883 -0.311539 -0.794092
			 0.561268 -0.070700 -0.824609
			 0.502163 -0.420694 -0.755546
			 0.305086 -0.229788 -0.924186
			 0.247732 -0.041161 -0.967954
			 0.608699 -0.121604 -0.784027
			 0.589320 -0.142859 -0.795169
			 0.412399  0.056984 -0.909219
			 0.511328 -0.115710 -0.851561
			 0.487955  0.109228 -0.866008
			-0.432644 -0.834240  0.341851
			-0.561526 -0.825572  0.055861
			-0.426495 -0.864465  0.266086
			-0.377433 -0.889650  0.257036
			-0.432891 -0.839610  0.328117
			-0.481216 -0.871305  0.096221
			-0.546488 -0.806548  0.225457
			-0.143831 -0.884914  0.442990
			-0.161171 -0.935185  0.315362
			 0.038114 -0.984223  0.172779
			 0.179384 -0.962203  0.204906
			-0.142374 -0.876893  0.459116
			 0.188002 -0.916135 -0.354051
			 0.247223 -0.957030 -0.151573
			 0.117237 -0.636872 -0.762004
			 0.254904 -0.403452 -0.878778
			 0.229223 -0.472492 -0.851004
			 0.237405 -0.586179 -0.774617
			 0.280671 -0.723775 -0.630375
			-0.766956 -0.573643  0.287595
			-0.731571 -0.677293  0.077955
			-0.823489 -0.533608  0.192688
			-0.717538 -0.582743  0.381510
			-0.665481 -0.530760  0.524814
			-0.741471 -0.480677  0.468156
			-0.341387 -0.777262  0.528506
			-0.461395 -0.713125  0.527794
			-0.628935 -0.497807  0.597184
			-0.270464 -0.809978  0.520370
			 0.228036 -0.627437 -0.744529
			 0.085980  0.996209  0.013271
			 0.045458  0.998786  0.018973
			 0.122862  0.980900  0.150796
			 0.241297  0.970449  0.002159
			 0.376526  0.912664 -0.158972
			 0.447135  0.821049 -0.354892
			 0.479071  0.782945  0.396847
			 0.149363  0.873495  0.463354
			-0.071716  0.915668  0.395486
			-0.289468  0.808677  0.512104
			 0.395412  0.872559  0.286863
			 0.891714  0.418865  0.171461
			 0.875271  0.457604  0.156522
			-0.487773 -0.710953  0.506580
			-0.588757 -0.173359  0.789501
			-0.727960 -0.162369  0.666116
			-0.685759 -0.383615  0.618526
			-0.701890  0.006273  0.712258
			-0.792799  0.075023  0.604849
			-0.805793  0.165449  0.568616
			-0.819152  0.243587  0.519284
			-0.825627  0.315972  0.467441
			-0.812654  0.390685  0.432388
			-0.800410  0.544342  0.251068
			-0.887713  0.396416  0.234137
			-0.802683  0.307978  0.510734
			-0.389194  0.794723  0.465772
			-0.583609  0.657656  0.476329
			-0.744192  0.555700  0.370643
			 0.613510  0.768246 -0.182766
			 0.815803  0.500868  0.289132
			 0.793425  0.584672  0.169219
			 0.751351  0.007480 -0.659861
			 0.668131 -0.201951 -0.716112
			 0.772273  0.630892 -0.074637
			 0.827056  0.499994 -0.256875
			 0.764817  0.226995 -0.602933
			 0.527590  0.258459 -0.809226
			 0.489292  0.241820 -0.837924
			 0.599372 -0.031295 -0.799858
			 0.510405 -0.163985 -0.844154
			 0.558399 -0.053302 -0.827859
			 0.551109  0.001674 -0.834432
			 0.498370  0.217779 -0.839166
			 0.480772  0.206241 -0.852246
			 0.464169  0.202852 -0.862205
			 0.401852  0.351958 -0.845364
			 0.463012  0.348885 -0.814800
			 0.402248  0.303799 -0.863657
			 0.506510  0.104294 -0.855904
			 0.538353 -0.155761 -0.828199
			 0.521249 -0.127904 -0.843765
			 0.424819 -0.308842 -0.850967
			 0.081932 -0.292692 -0.952690
			 0.523967  0.086586 -0.847326
			 0.151189 -0.380205 -0.912462
			 0.291372 -0.078616 -0.953374
			 0.087434 -0.166099 -0.982225
			 0.235432 -0.024169 -0.971590
			 0.320841  0.152870 -0.934715
			 0.587269  0.234331 -0.774729
			 0.370144  0.177238 -0.911910
			 0.409076  0.201278 -0.890025
			-0.596902 -0.800746  0.050139
			-0.776994 -0.628068  0.042567
			-0.584549 -0.663040  0.467632
			-0.731036 -0.553890  0.398488
			-0.747346 -0.615955  0.249144
			-0.706976 -0.677667  0.202367
			-0.111664 -0.944060  0.310293
			-0.149049 -0.888170  0.434670
			-0.121340 -0.922801  0.365671
			-0.140947 -0.987448  0.071284
			-0.064480 -0.977158 -0.202495
			-0.094820 -0.992471 -0.077523
			 0.235087 -0.953426 -0.188981
			 0.172096 -0.864888 -0.471543
			-0.008979 -0.968613 -0.248410
			 0.444349 -0.656208 -0.609873
			 0.368158 -0.773863 -0.515360
			 0.053247 -0.741388 -0.668961
			 0.266896 -0.408815 -0.872718
			 0.431187 -0.400982 -0.808264
			 0.315521 -0.526453 -0.789490
			 0.727049 -0.363000 -0.582778
			-0.817237 -0.339768  0.465490
			-0.873528 -0.296471  0.386074
			-0.892401 -0.422174  0.159344
			-0.916299 -0.245782  0.316207
			-0.801046 -0.233472  0.551195
			-0.778700 -0.222978  0.586437
			-0.427447 -0.648404  0.629970
			-0.391048 -0.716343  0.577870
			-0.457612 -0.639074  0.618204
			-0.790770 -0.205263  0.576671
			-0.651561 -0.432159  0.623464
			-0.276866 -0.869423  0.409204
			-0.597461 -0.646420  0.474533
			-0.582364 -0.705257  0.404307
			-0.004898 -0.777118 -0.629336
			 0.194081 -0.586692 -0.786210
			 0.288106  0.939109 -0.187269
			-0.001398  0.985225 -0.171260
			 0.096825  0.979078 -0.178971
			 0.162063  0.938064  0.306221
			 0.161141  0.984083 -0.074929
			 0.115816  0.975735  0.185819
			 0.084607  0.993927  0.070357
			 0.388336  0.867678 -0.310373
			 0.319534  0.818786 -0.476957
			 0.289940  0.856896  0.426221
			 0.383215  0.854566  0.350519
			-0.354904  0.793191  0.494865
			-0.326969  0.862048  0.387253
			-0.204958  0.948048  0.243304
			-0.487954  0.739762  0.463306
			-0.596351  0.605558  0.526939
			-0.794728 -0.044422  0.605339
			-0.823415 -0.078934  0.561923
			-0.767620 -0.316619  0.557236
			-0.774324 -0.059718  0.629966
			-0.873799 -0.037915  0.484808
			-0.900263  0.011830  0.435187
			-0.868841  0.064618  0.490856
			-0.910541  0.286437  0.298110
			-0.949879  0.274402  0.149781
			-0.941933  0.333567 -0.038664
			-0.901709  0.383533  0.199556
			-0.963284  0.174797  0.203791
			-0.858708  0.187903  0.476773
			-0.771297  0.518099  0.369696
			-0.838398  0.344503  0.422383
			 0.489166  0.867967 -0.085735
			 0.748186  0.602191  0.278537
			 0.768874  0.578326  0.272711
			 0.752984  0.657929  0.012018
			 0.706853  0.703100 -0.077520
			 0.648608  0.705909 -0.284604
			 0.568010  0.813553 -0.124482
			 0.697210  0.533603 -0.478712
			 0.342796  0.448654 -0.825349
			 0.477602 -0.285833 -0.830780
			 0.378882 -0.401995 -0.833576
			 0.469166 -0.299086 -0.830922
			 0.504109 -0.161275 -0.848448
			 0.469891  0.230148 -0.852194
			 0.336740 -0.068878 -0.939075
			 0.415813  0.147464 -0.897415
			 0.459181  0.224550 -0.859494
			 0.310072  0.338734 -0.888321
			 0.384006  0.269346 -0.883172
			 0.252249  0.495176 -0.831367
			 0.151808  0.503431 -0.850595
			 0.416823 -0.136584 -0.898668
			 0.351770 -0.545786 -0.760510
			 0.398577 -0.498563 -0.769787
			 0.384363 -0.440241 -0.811451
			 0.391673 -0.321795 -0.861998
			-0.145201 -0.240838 -0.959643
			-0.009572 -0.204878 -0.978741
			 0.590827  0.532554 -0.606061
			 0.438725  0.394967 -0.807169
			 0.101608  0.368964 -0.923873
			 0.139813 -0.007785 -0.990147
			 0.013736 -0.254978 -0.966849
			 0.136382  0.326729 -0.935226
			 0.297576  0.398677 -0.867471
			-0.709595 -0.703095  0.046178
			-0.823515 -0.567290  0.002179
			-0.914743 -0.395685  0.081725
			-0.839754 -0.405797  0.360751
			-0.878690 -0.055506  0.474155
			-0.892857 -0.342236  0.292714
			-0.824398 -0.550667  0.130896
			-0.074398 -0.993780  0.082865
			-0.103800 -0.881797  0.460065
			-0.230654 -0.898395  0.373744
			-0.186613 -0.969216  0.160614
			-0.150661 -0.980257 -0.128050
			-0.014028 -0.881566 -0.471852
			 0.062658 -0.760495 -0.646313
			 0.001602 -0.861850 -0.507160
			-0.100532 -0.939644 -0.327051
			-0.117070 -0.916017 -0.383676
			-0.122751 -0.873185 -0.471678
			-0.121909 -0.870449 -0.476925
			 0.330588 -0.684116 -0.650151
			 0.268589 -0.502909 -0.821549
			 0.083255 -0.743373 -0.663676