<?xml version="1.0"?>
<VTKFile type="PolyData" version="0.1" byte_order="LittleEndian" compressor="vtkZLibDataCompressor">
	<PolyData>
		<Piece NumberOfPoints="1616" NumberOfVerts="0" NumberOfLines="0" NumberOfStrips="0" NumberOfPolys="3228">
		<PointData Normals="Normals">
		<DataArray type="Float32" Name="Normals" NumberOfComponents="3" format="ascii">
			-0.389282 -0.786231  0.479896
			-0.550508 -0.643387  0.531972
			-0.343834 -0.778441  0.525174
			-0.331695 -0.847726  0.413931
			-0.580591 -0.758266  0.296559
			-0.385387 -0.831062  0.401015
			-0.425304 -0.635053  0.644844
			-0.418900 -0.473762  0.774644
			-0.698799 -0.594871  0.397252
			-0.640535 -0.512240  0.572124
			-0.760125 -0.613644  0.213661
			-0.464880 -0.729239  0.502093
			-0.257681 -0.873576  0.412875
			-0.197460 -0.847348  0.492962
			-0.157033 -0.852615  0.498386
			-0.161129 -0.942755  0.291975
			-0.271713 -0.915781  0.295832
			-0.295220 -0.845818  0.444340
			-0.695149 -0.718851  0.004584
			-0.507106 -0.857103  0.090651
			-0.414291 -0.881154  0.227881
			-0.442826 -0.601128  0.665244
			-0.532141 -0.504556  0.679889
			-0.283858 -0.443341  0.850220
			-0.342129 -0.484296  0.805236
			-0.471714 -0.528713  0.705654
			-0.704090 -0.523390  0.479918
			-0.841829 -0.519874  0.145102
			-0.798545 -0.599391 -0.055282
			-0.890410 -0.455158  0.001203
			-0.643067 -0.728509  0.236091
			-0.479510 -0.800836  0.358792
			-0.652034 -0.669963  0.354967
			-0.600916 -0.596283  0.532303
			-0.024880 -0.902456  0.430063
			-0.499155 -0.812958  0.299905
			-0.396066 -0.831314  0.389935
			-0.233434 -0.938053  0.256056
			-0.024603 -0.954825  0.296150
			-0.044445 -0.955487  0.291666
			 0.162399 -0.949853  0.267219
			-0.122920 -0.964887  0.232128
			-0.352258 -0.914910  0.197114
			-0.250517 -0.869347  0.426001
			-0.066603 -0.996927  0.041251
			-0.074970 -0.975529  0.206695
			-0.570183 -0.816780 -0.088104
			-0.653126 -0.753340  0.076844
			-0.555207 -0.831587  0.014452
			-0.510103 -0.856653 -0.077079
			-0.492163 -0.539847  0.682892
			-0.618364 -0.507176  0.600332
			-0.511162 -0.458288  0.727107
			-0.444833 -0.464334  0.765844
			-0.800333 -0.478239  0.361600
			-0.882331 -0.437598  0.173206
			-0.886907 -0.454281  0.083818
			-0.878785 -0.470194  0.081574
			-0.903063 -0.414788  0.111478
			-0.812786 -0.580964 -0.043128
			-0.883029 -0.468027  0.034806
			-0.792295 -0.587734  0.163823
			-0.845659 -0.516757  0.133505
			-0.584804 -0.808177  0.069663
			-0.805200 -0.589203  0.067029
			-0.717922 -0.682638 -0.136358
			-0.722277 -0.543075  0.428236
			-0.841316 -0.493443  0.220684
			-0.710972 -0.512473  0.481549
			 0.125979 -0.929585  0.346413
			-0.603572 -0.794933 -0.061501
			-0.592679 -0.803467  0.056316
			-0.525161 -0.823139  0.215981
			-0.445103 -0.893508  0.059385
			-0.275811 -0.954788 -0.110940
			-0.183528 -0.980877  0.064795
			-0.010798 -0.976605  0.214770
			 0.067924 -0.992748  0.099182
			-0.068169 -0.996494  0.048508
			 0.418948 -0.881267  0.218750
			 0.518497 -0.851543  0.077692
			 0.366649 -0.924356  0.105520
			 0.179749 -0.970981  0.157753
			-0.350418 -0.928615 -0.121988
			 0.226898 -0.970255  0.084392
			 0.221254 -0.964048 -0.147167
			-0.052586 -0.979659 -0.193657
			-0.343235 -0.850039  0.399530
			-0.661130 -0.749151  0.040972
			-0.455816 -0.839248  0.296470
			-0.491229 -0.819461  0.295257
			-0.462055 -0.869397 -0.175082
			-0.259490 -0.927712  0.268358
			-0.311986 -0.869114  0.383804
			-0.363448 -0.931615  0.000048
			-0.338845 -0.930008 -0.142369
			-0.654358 -0.496406  0.570437
			-0.806605 -0.444438  0.389696
			-0.795277 -0.367496  0.482163
			-0.677890 -0.410276  0.610032
			-0.437328 -0.453554  0.776552
			-0.388422 -0.433659  0.813061
			-0.308535 -0.495681  0.811854
			-0.627970 -0.474831  0.616595
			-0.811355 -0.439462  0.385456
			-0.938304 -0.284073  0.197199
			-0.804307 -0.495573  0.327868
			-0.769740 -0.583238  0.259489
			-0.912720 -0.383060  0.142152
			-0.827643 -0.473400  0.301497
			-0.771532 -0.636098  0.010828
			-0.596434 -0.756177  0.269190
			-0.572255 -0.655033  0.493412
			-0.558241 -0.674763  0.482766
			-0.659890 -0.702998 -0.265214
			-0.904338 -0.422939  0.057408
			-0.820271 -0.534495 -0.203645
			-0.708271 -0.557885 -0.432569
			-0.809795 -0.468869  0.352694
			 0.271672 -0.933138  0.235475
			-0.617634 -0.687577 -0.381793
			-0.602602 -0.747093 -0.280577
			-0.570284 -0.809682 -0.138532
			-0.455800 -0.810377 -0.368152
			-0.242956 -0.820615 -0.517265
			-0.188991 -0.931577 -0.310559
			-0.263373 -0.910485 -0.318829
			 0.037916 -0.989538 -0.139203
			 0.076039 -0.895111 -0.439311
			 0.289300 -0.955568 -0.056535
			 0.172223 -0.926043 -0.335834
			-0.099724 -0.936409 -0.336442
			 0.506661 -0.852177  0.130725
			 0.686381 -0.725614 -0.048642
			 0.574296 -0.805576 -0.145712
			 0.698944 -0.708445 -0.097893
			 0.452821 -0.872893 -0.181690
			 0.268561 -0.962546 -0.037135
			 0.162125 -0.986733 -0.008605
			-0.044967 -0.996335  0.072760
			-0.086116 -0.850391  0.519056
			-0.245953 -0.821581  0.514308
			 0.065816 -0.806615  0.587402
			-0.529663 -0.822678  0.206539
			-0.313667 -0.848346  0.426524
			-0.053898 -0.785789  0.616141
			-0.245902 -0.967922  0.051570
			-0.135328 -0.900853  0.412492
			-0.117005 -0.961427  0.248933
			 0.032639 -0.895563  0.443736
			-0.940440 -0.306936  0.146160
			-0.973412 -0.221102  0.059851
			-0.927419 -0.261864  0.267059
			-0.954450 -0.183339  0.235397
			-0.875467 -0.257942  0.408686
			-0.385723 -0.463499  0.797738
			-0.781306 -0.297543  0.548661
			 0.557869 -0.391764  0.731644
			 0.521484 -0.483818  0.702833
			-0.518341 -0.477042  0.709756
			-0.739252 -0.472560  0.479785
			-0.538160 -0.491984  0.684350
			-0.918578 -0.318412  0.234156
			-0.946003 -0.258985  0.194951
			-0.564281 -0.584826  0.582722
			-0.603636 -0.624951  0.495035
			-0.796822 -0.523123  0.302353
			-0.854714 -0.381872  0.351623
			-0.329383 -0.745285  0.579705
			-0.352717 -0.694515  0.627089
			-0.184366 -0.675185  0.714237
			-0.353127 -0.646939  0.675849
			-0.623594 -0.571962 -0.532907
			-0.910470 -0.342138 -0.232347
			-0.943528 -0.165510 -0.286986
			-0.966821 -0.221970 -0.126438
			-0.891363 -0.393178  0.225572
			-0.942009 -0.323782  0.088232
			-0.789926 -0.352456 -0.501789
			-0.586657 -0.402608 -0.702667
			 0.338843 -0.940674 -0.017822
			-0.537590 -0.591739 -0.600701
			-0.512843 -0.689096 -0.511994
			-0.376390 -0.628861 -0.680341
			-0.200735 -0.579270 -0.790033
			-0.178055 -0.754991 -0.631098
			-0.253069 -0.743587 -0.618897
			 0.018622 -0.736870 -0.675778
			 0.072843 -0.713197 -0.697168
			 0.131805 -0.658114 -0.741292
			 0.287021 -0.801474 -0.524651
			 0.504797 -0.852526 -0.135569
			 0.655390 -0.709079 -0.260135
			 0.679869 -0.585965 -0.440934
			 0.713497 -0.627973 -0.310761
			 0.732633 -0.667800 -0.131501
			 0.636050 -0.765305 -0.098740
			 0.696369 -0.703253 -0.143196
			 0.612399 -0.777352 -0.143846
			 0.659571 -0.750965 -0.031899
			 0.395144 -0.908866  0.133507
			 0.641774 -0.750601 -0.157238
			 0.594756 -0.803265  0.032112
			 0.363831 -0.895064  0.257852
			 0.306933 -0.892021  0.331798
			 0.127636 -0.943847  0.304734
			 0.017730 -0.938977  0.343523
			 0.017483 -0.758871  0.651007
			 0.190582 -0.842216  0.504333
			 0.296750 -0.744113  0.598527
			 0.247426 -0.701117  0.668742
			-0.143853 -0.766909  0.625425
			 0.146589 -0.666493  0.730957
			-0.019162 -0.675530  0.737083
			-0.985728 -0.166872 -0.022241
			-0.988063 -0.109426 -0.108435
			-0.987593 -0.133272  0.083062
			-0.987394 -0.112127 -0.111713
			-0.935694 -0.111216  0.334826
			-0.977908 -0.037302  0.205679
			-0.630232 -0.325590  0.704839
			-0.460841 -0.401749  0.791343
			 0.774645 -0.325784  0.542023
			-0.826065 -0.182431  0.533231
			-0.279568 -0.467019  0.838889
			-0.710917 -0.457767  0.533897
			-0.863266 -0.405082  0.301133
			-0.668741 -0.343884  0.659188
			-0.940504 -0.279398  0.193363
			-0.914599 -0.222724  0.337494
			 0.207308 -0.464929  0.860735
			 0.196368 -0.677975  0.708371
			-0.213105 -0.659215  0.721126
			-0.637717 -0.550870  0.538386
			-0.214966 -0.627748  0.748146
			-0.486074 -0.569611  0.662778
			-0.566115 -0.480262  0.669972
			-0.790028 -0.327348  0.518362
			-0.106709 -0.695473  0.710584
			-0.886141 -0.135000 -0.443316
			-0.890932 -0.062580 -0.449804
			-0.959875 -0.083844 -0.267602
			-0.677834 -0.203599 -0.706462
			-0.811511 -0.094649 -0.576621
			-0.442312 -0.375674 -0.814389
			-0.449331 -0.240062 -0.860507
			-0.465424 -0.158742 -0.870736
			 0.367141 -0.840190 -0.399108
			-0.416799 -0.529417 -0.738915
			-0.257002 -0.433718 -0.863619
			-0.181814 -0.329415 -0.926515
			-0.166849 -0.509513 -0.844132
			 0.020311 -0.364921 -0.930817
			 0.080442 -0.541226 -0.837020
			 0.140773 -0.320209 -0.936829
			 0.206457 -0.472926 -0.856573
			 0.293528 -0.565218 -0.770954
			 0.502170 -0.654255 -0.565487
			 0.569952 -0.479751 -0.667078
			 0.552188 -0.406529 -0.727889
			 0.501811 -0.540959 -0.674944
			 0.584343 -0.685708 -0.433991
			 0.613284 -0.780276 -0.122685
			 0.668909 -0.736473  0.100840
			 0.512640 -0.857074 -0.051239
			 0.729563 -0.676512  0.100348
			 0.803903 -0.588213  0.088009
			 0.734070 -0.678279  0.032848
			 0.758059 -0.649486  0.059282
			 0.580538 -0.802061 -0.140263
			 0.381873 -0.802777  0.457955
			 0.478680 -0.804113  0.352515
			 0.534700 -0.749685  0.389959
			 0.391262 -0.714352  0.580186
			 0.288115 -0.616426  0.732809
			 0.463484 -0.606374  0.646138
			 0.439035 -0.655385  0.614588
			-0.011596 -0.637969  0.769975
			 0.029063 -0.576786  0.816378
			-0.965908 -0.021725 -0.257971
			-0.995907 -0.042737 -0.079641
			-0.887942 -0.069262  0.454711
			-0.968974  0.068483  0.237485
			-0.996183  0.069959  0.052200
			-0.777590 -0.390862  0.492525
			-0.904153 -0.331837  0.269057
			-0.766826 -0.285422  0.574901
			-0.931827 -0.237754  0.274175
			-0.903947 -0.199269  0.378380
			-0.874505 -0.238058  0.422575
			-0.712528 -0.313694  0.627614
			 0.798021 -0.322280  0.509214
			-0.855751 -0.330404  0.398150
			-0.359521 -0.543470  0.758541
			-0.165565 -0.509370  0.844470
			-0.303666 -0.505965  0.807333
			-0.451592 -0.426127  0.783888
			-0.658949 -0.335951  0.672995
			-0.822694 -0.085100 -0.562079
			-0.888942 -0.095773 -0.447895
			-0.685044 -0.095114 -0.722266
			-0.216660 -0.178490 -0.959792
			-0.258683 -0.282286 -0.923795
			-0.287264 -0.359278 -0.887918
			-0.293094 -0.105023 -0.950298
			-0.484231 -0.011301 -0.874867
			-0.233865  0.011217 -0.972205
			-0.144448 -0.192137 -0.970679
			-0.026362 -0.175084 -0.984200
			 0.034958 -0.126654 -0.991331
			-0.056984 -0.267230 -0.961946
			 0.157684 -0.086693 -0.983677
			 0.240845 -0.165781 -0.956300
			 0.390726 -0.353417 -0.849959
			 0.377798 -0.211554 -0.901395
			 0.520631 -0.346620 -0.780255
			 0.373549 -0.243602 -0.895053
			 0.419020 -0.300598 -0.856775
			 0.266991 -0.368925 -0.890286
			 0.259903 -0.445449 -0.856753
			 0.498253 -0.590339 -0.635014
			 0.558517 -0.726260 -0.400755
			 0.732101 -0.679665  0.045645
			 0.628612 -0.691883  0.355169
			 0.512826 -0.700867  0.495777
			 0.959261 -0.277847  0.051187
			 0.787952 -0.614920  0.031705
			 0.963896 -0.262104  0.046966
			 0.749765 -0.640325  0.166842
			 0.934937 -0.344986  0.082928
			 0.653049 -0.694496 -0.301998
			 0.735971 -0.674866 -0.053883
			 0.627609 -0.640920 -0.441959
			 0.210720 -0.538985  0.815532
			 0.520650 -0.535530  0.664930
			 0.391124 -0.554029  0.734898
			 0.350338 -0.488734  0.799001
			 0.631128 -0.576707  0.518736
			 0.621211 -0.510158  0.594841
			 0.552455 -0.640560  0.533362
			-0.088325 -0.488012  0.868357
			 0.180829 -0.471475  0.863141
			-0.751293 -0.032468 -0.659170
			-0.969177  0.128488 -0.210206
			-0.979007  0.095723 -0.179951
			-0.862474  0.025439 -0.505462
			-0.979866  0.072718 -0.185945
			-0.933207  0.060462  0.354217
			-0.852788 -0.182692  0.489261
			-0.974569  0.216664  0.057201
			-0.969387  0.170875  0.176323
			-0.952179  0.208209  0.223618
			-0.974179  0.195663 -0.112656
			-0.748390 -0.261350  0.609597
			-0.941621 -0.068408  0.329653
			-0.861480 -0.006569  0.507749
			-0.810590 -0.298034  0.504102
			-0.587291 -0.376629  0.716408
			-0.877759 -0.234014  0.418063
			-0.275654 -0.450314  0.849254
			-0.672377  0.027271 -0.739707
			-0.739407 -0.048957 -0.671476
			-0.094863 -0.003793 -0.995483
			-0.038132  0.025187 -0.998955
			-0.439187  0.047592 -0.897134
			-0.273307  0.026782 -0.961554
			 0.057023 -0.007865 -0.998342
			 0.123505 -0.005113 -0.992331
			 0.192508  0.021350 -0.981063
			 0.206806  0.004129 -0.978373
			 0.291562 -0.123306 -0.948571
			 0.169477 -0.028430 -0.985124
			 0.198690 -0.060141 -0.978215
			 0.247340 -0.147868 -0.957579
			 0.169218 -0.369180 -0.913823
			 0.175752 -0.221790 -0.959125
			 0.305323 -0.316210 -0.898215
			 0.369581 -0.365763 -0.854182
			 0.366404 -0.278855 -0.887687
			 0.593096 -0.502060 -0.629423
			 0.775239 -0.606125  0.177812
			 0.854637 -0.510599  0.094259
			 0.882075 -0.470347  0.026796
			 0.812388 -0.579815  0.061972
			 0.756360 -0.651682  0.056836
			 0.808408 -0.549107  0.212034
			 0.741068 -0.593674  0.313639
			 0.564929 -0.513103 -0.646205
			 0.669515 -0.640731 -0.375783
			 0.766549 -0.580699 -0.274209
			 0.520199 -0.498515  0.693452
			 0.635217 -0.476440  0.607869
			 0.695991 -0.450043  0.559516
			 0.658178 -0.415162  0.628046
			 0.571863 -0.441037  0.691707
			 0.400115 -0.441473  0.803125
			 0.793169 -0.470440  0.386743
			-0.110341 -0.440423  0.890984
			 0.418112 -0.416890  0.807084
			 0.377932 -0.401831  0.834086
			 0.088204 -0.432172  0.897467
			 0.256074 -0.389105  0.884886
			-0.564356 -0.015418 -0.825387
			-0.930191  0.248882 -0.269820
			-0.962587  0.223487 -0.153229
			-0.974045  0.225452  0.020168
			-0.925572  0.109805 -0.362297
			-0.984003  0.090224 -0.153619
			-0.984954  0.105367 -0.136978
			-0.721895  0.061322 -0.689280
			-0.939850  0.159529  0.302048
			-0.937761  0.030113  0.345975
			-0.691071 -0.348396  0.633279
			-0.844518 -0.153923  0.512929
			-0.903113  0.401767 -0.151559
			-0.872880  0.487934  0.000893
			-0.939477  0.309413  0.147127
			-0.895205  0.445246  0.019057
			-0.941341  0.326765  0.084275
			-0.945086  0.303467  0.121323
			-0.940967  0.332979  0.060886
			-0.899467  0.436143 -0.027190
			-0.792339 -0.061355  0.606988
			-0.647202 -0.390570  0.654664
			-0.272962 -0.169719  0.946936
			-0.917647  0.029506  0.396300
			-0.963296  0.045573  0.264545
			-0.933207  0.090137  0.347852
			-0.811704 -0.265457  0.520259
			-0.725765 -0.259808  0.636997
			-0.671179 -0.364480  0.645502
			-0.409172 -0.400872  0.819683
			 0.131075  0.049655 -0.990128
			 0.121082 -0.041100 -0.991791
			-0.083030  0.023555 -0.996269
			-0.032090  0.024816 -0.999177
			-0.029973 -0.109035 -0.993586
			-0.201318  0.006843 -0.979502
			 0.077389 -0.096098 -0.992359
			 0.084280 -0.135566 -0.987177
			 0.139413 -0.178026 -0.974100
			 0.356303 -0.228303 -0.906049
			 0.472838 -0.359916 -0.804292
			 0.465751 -0.315665 -0.826699
			 0.363719 -0.234145 -0.901601
			 0.859328 -0.355637  0.367530
			 0.880927 -0.408419  0.239085
			 0.821951 -0.419845  0.384873
			 0.784654 -0.617541 -0.054427
			 0.735116 -0.650754  0.190060
			 0.744788 -0.553626  0.372544
			 0.796105 -0.368081  0.480347
			 0.651724 -0.549231 -0.523069
			 0.553105 -0.366909 -0.747966
			 0.717904 -0.478847 -0.505292
			 0.798737 -0.514536 -0.311883
			 0.505265 -0.404466  0.762309
			 0.609882 -0.492755  0.620674
			 0.656385 -0.416690  0.628910
			 0.699867 -0.403618  0.589303
			 0.774616 -0.343932  0.530735
			 0.824658 -0.352728  0.442178
			 0.723170 -0.304467  0.619940
			-0.292550 -0.348930  0.890316
			-0.072784 -0.388397  0.918613
			 0.036004 -0.402177  0.914854
			 0.534101 -0.351476  0.768896
			 0.376168 -0.363092  0.852445
			 0.298694 -0.367106  0.880917
			-0.450789  0.018947 -0.892429
			-0.898979  0.384725 -0.209338
			-0.983271  0.169187  0.067481
			-0.917713  0.397165  0.007935
			-0.944679  0.273331  0.181306
			-0.831873  0.548691 -0.083220
			-0.756319  0.083066 -0.648908
			-0.947077  0.087009 -0.308990
			-0.834307  0.093093 -0.543384
			-0.872708  0.141005 -0.467438
			-0.939763  0.159669 -0.302244
			-0.922726  0.140274  0.359026
			-0.921226 -0.027902  0.388027
			-0.661372 -0.386624  0.642736
			-0.890936  0.034953  0.452783
			-0.827456 -0.179480  0.532075
			-0.746811  0.661663 -0.066903
			-0.672255  0.719517 -0.174266
			-0.841372  0.523743 -0.133366
			-0.886701  0.449865 -0.106691
			-0.815501  0.527287 -0.238593
			-0.932227  0.208360  0.295871
			-0.927312  0.333614  0.169685
			-0.869363  0.460295 -0.179826
			-0.771375  0.579597 -0.262769
			-0.623081  0.690650 -0.367114
			-0.860379 -0.186101  0.474463
			-0.950957  0.039797  0.306752
			-0.709936 -0.507048  0.488766
			-0.809114 -0.457016  0.369420
			-0.918850 -0.071940  0.387993
			 0.795813 -0.185028  0.576582
			-0.509639 -0.246173  0.824419
			-0.995098 -0.005601  0.098735
			-0.975350 -0.159063  0.152939
			-0.698134 -0.368119  0.614083
			-0.634974 -0.350517  0.688437
			-0.453402 -0.342682  0.822797
			-0.126516  0.008522 -0.991928
			 0.044361 -0.000544 -0.999015
			-0.041345 -0.026319 -0.998798
			-0.034975 -0.153749 -0.987491
			-0.117077 -0.107283 -0.987311
			-0.151220 -0.167841 -0.974147
			 0.004818 -0.092218 -0.995727
			 0.003455 -0.124174 -0.992254
			-0.026410 -0.115863 -0.992914
			-0.124372  0.009267 -0.992192
			-0.229866  0.032520 -0.972679
			 0.082766 -0.189579 -0.978371
			 0.124450 -0.167841 -0.977927
			 0.148957 -0.142955 -0.978456
			 0.148433 -0.127416 -0.980680
			 0.204657 -0.138567 -0.968976
			 0.391110 -0.198512 -0.898680
			 0.821624 -0.293523  0.488650
			 0.820216 -0.560516  0.114311
			 0.809022 -0.553503 -0.197783
			 0.868652 -0.375198  0.323530
			 0.933115 -0.251993  0.256506
			 0.749576 -0.463920  0.472137
			 0.843777 -0.341353  0.414148
			 0.777513 -0.294827  0.555473
			 0.787548 -0.280116  0.548912
			 0.791554 -0.269307  0.548558
			 0.607924 -0.344602 -0.715317
			 0.759039 -0.429542 -0.489238
			 0.584678 -0.354175  0.729871
			 0.677841 -0.301249  0.670657
			 0.775289 -0.268922  0.571496
			-0.598956 -0.289643  0.746565
			-0.526195 -0.193859  0.827972
			-0.158794 -0.359086  0.919697
			-0.308682 -0.293050  0.904896
			-0.093933 -0.332979  0.938244
			 0.116802 -0.366045  0.923238
			 0.544258 -0.356525  0.759390
			 0.316908 -0.378017  0.869869
			 0.204015 -0.374431  0.904533
			 0.862905 -0.181230  0.471752
			 0.856560 -0.189477  0.480004
			-0.601229  0.060324 -0.796797
			-0.245704  0.071998 -0.966668
			-0.937534  0.197753 -0.286224
			-0.942816  0.248334  0.222326
			-0.960848  0.253327 -0.112232
			-0.903294  0.428937 -0.008582
			-0.887949  0.403479  0.220796
			-0.755144  0.652571  0.062512
			-0.622972  0.123497 -0.772434
			-0.754275  0.174492 -0.632946
			-0.915303  0.150900  0.373429
			-0.744736 -0.360324  0.561725
			-0.850339 -0.092421  0.518057
			-0.637163  0.763574  0.104778
			-0.464608  0.874361 -0.140116
			-0.473233  0.795567 -0.378317
			-0.768941  0.531101 -0.355896
			-0.613599  0.644924 -0.455597
			-0.640042  0.547896 -0.538662
			-0.637760  0.607602 -0.473372
			-0.906983  0.421159 -0.002523
			-0.907407  0.178905  0.380270
			-0.909310  0.307754  0.280076
			-0.884626  0.309669 -0.348629
			-0.733515  0.454140 -0.505680
			-0.566276  0.596832 -0.568439
			-0.462023  0.737795 -0.492131
			-0.436754  0.804100 -0.403324
			-0.970986 -0.190902  0.144022
			-0.848293 -0.338348  0.407332
			-0.937853 -0.305027  0.165501
			-0.989862  0.032637  0.138229
			-0.989911 -0.125365  0.066032
			-0.940730 -0.152908  0.302732
			-0.812471 -0.274289  0.514448
			-0.970093 -0.062738  0.234485
			-0.966148 -0.099333  0.238097
			 0.660778  0.003323 -0.750574
			 0.110637 -0.046091 -0.992792
			 0.945064  0.009156 -0.326758
			 0.032745 -0.102680 -0.994175
			 0.125752 -0.106020 -0.986380
			-0.217640 -0.085736 -0.972256
			-0.202051 -0.091380 -0.975102
			-0.099624 -0.063044 -0.993026
			-0.008083 -0.060030 -0.998164
			 0.029399 -0.040116 -0.998762
			-0.021625 -0.045711 -0.998721
			 0.042677 -0.072429 -0.996460
			-0.187508  0.028335 -0.981854
			 0.069763  0.057926 -0.995880
			 0.040557  0.001891 -0.999175
			 0.791379  0.066230 -0.607727
			 0.185402 -0.149887 -0.971164
			 0.230557 -0.121642 -0.965426
			 0.519049 -0.239596 -0.820477
			 0.331686 -0.149545 -0.931462
			 0.453823 -0.215832 -0.864558
			 0.836645 -0.509032 -0.202267
			 0.857844 -0.513205  0.026920
			 0.864878 -0.432972  0.254011
			 0.764261 -0.476374 -0.434710
			 0.963332 -0.156437  0.217986
			 0.828817 -0.350495  0.436137
			 0.962930 -0.152297  0.222648
			 0.782357 -0.255892  0.567835
			 0.847338 -0.309801  0.431325
			 0.771900 -0.258601  0.580771
			 0.793354 -0.218004  0.568388
			 0.615366 -0.321815 -0.719555
			 0.710089 -0.386380 -0.588629
			 0.749619 -0.301592  0.589164
			 0.783851 -0.278246  0.555119
			-0.730934 -0.194854  0.654039
			-0.798032  0.020845  0.602255
			-0.686553  0.043639  0.725769
			-0.518190 -0.117048  0.847218
			-0.439968 -0.109803  0.891275
			 0.305473 -0.359563  0.881703
			 0.105435 -0.427075  0.898048
			-0.072926 -0.361918  0.929353
			-0.368527 -0.152207  0.917072
			 0.354335 -0.404031  0.843330
			 0.483252 -0.449016  0.751567
			 0.671496 -0.398292  0.624866
			 0.359913 -0.368343  0.857197
			 0.765873 -0.239055  0.596902
			-0.242002  0.123005 -0.962447
			 0.942929  0.028635 -0.331759
			-0.845139  0.276502 -0.457479
			-0.938742  0.330251 -0.098480
			-0.903506  0.398128  0.158655
			-0.868245  0.322446  0.377066
			-0.863221  0.327308  0.384342
			-0.797509  0.559199  0.226439
			-0.579303  0.215921 -0.785994
			-0.687253  0.295554 -0.663574
			-0.822056  0.026295  0.568800
			-0.922911 -0.176894  0.341971
			-0.820282 -0.067736  0.567934
			-0.756340 -0.041860  0.652837
			-0.757641 -0.033017  0.651836
			-0.743283  0.521868  0.418550
			-0.605624  0.777278  0.170465
			-0.611453  0.741333 -0.276679
			-0.517644  0.734624 -0.438603
			-0.771132  0.574890 -0.273600
			-0.731268  0.536609 -0.421069
			-0.778653  0.543894 -0.312857
			-0.735489  0.371084 -0.566879
			-0.871771  0.279010 -0.402702
			-0.955490  0.284600 -0.077728
			-0.906925  0.371470  0.198739
			-0.892411  0.418891  0.167726
			-0.843785  0.136406  0.519057
			-0.885803  0.316820  0.339086
			-0.889678  0.181719 -0.418870
			-0.966630  0.069162 -0.246665
			-0.993794  0.039325 -0.104051
			-0.706200  0.544974 -0.451979
			-0.852761  0.407249 -0.327029
			-0.850109  0.020740  0.526198
			 0.636448 -0.050588 -0.769659
			 0.202993 -0.048656 -0.977971
			 0.080883  0.024121 -0.996432
			 0.170789  0.051432 -0.983964
			 0.206294  0.040380 -0.977657
			-0.363167 -0.005649 -0.931707
			-0.180918  0.056581 -0.981869
			-0.254403 -0.043212 -0.966132
			-0.036208  0.022706 -0.999086
			 0.449985  0.044602 -0.891922
			-0.328743  0.031412 -0.943897
			 0.256356 -0.140509 -0.956315
			 0.255349 -0.108081 -0.960789
			 0.252264 -0.144027 -0.956880
			 0.502763 -0.335073 -0.796841
			 0.904212 -0.427008  0.008093
			 0.796129 -0.480761 -0.367487
			 0.858619 -0.437495  0.267156
			 0.716745 -0.410024 -0.564053
			 0.813726 -0.239380  0.529668
			 0.802387 -0.335099  0.493846
			 0.744249 -0.279089  0.606797
			 0.806455 -0.321022  0.496564
			 0.745054 -0.274768  0.607781
			 0.855200 -0.176477  0.487328
			 0.767703 -0.338156  0.544319
			 0.786258 -0.322549  0.527030
			 0.788049 -0.322414  0.524431
			-0.733266  0.028281  0.679353
			-0.620539  0.074153  0.780662
			-0.581382  0.002330  0.813627
			 0.185380 -0.392795  0.900748
			 0.242546 -0.467363  0.850143
			 0.174474 -0.504583  0.845550
			-0.321360 -0.210102  0.923355
			-0.033836 -0.402879  0.914628
			-0.474290 -0.092059  0.875542
			 0.371915 -0.477433  0.796076
			 0.611388 -0.539487  0.578929
			 0.380478 -0.577194  0.722554
			 0.769145 -0.392647  0.504227
			 0.158347 -0.388074  0.907923
			-0.397599  0.119234 -0.909779
			-0.848494  0.393113 -0.354289
			-0.897211  0.419832 -0.136945
			-0.908540  0.344135  0.236911
			-0.909774  0.289477  0.297514
			-0.895806  0.247903  0.368885
			-0.907921  0.206948  0.364489
			-0.907398  0.207038  0.365737
			-0.769325  0.370737 -0.520282
			-0.746007  0.273738 -0.607076
			-0.544628  0.111977 -0.831168
			-0.456439  0.129307 -0.880309
			-0.684417 -0.026919  0.728594
			-0.732201 -0.005395  0.681068
			-0.900823  0.408445  0.147279
			-0.930684  0.339731 -0.135681
			-0.892855  0.418446 -0.166469
			-0.945995  0.308812 -0.098628
			-0.891823  0.448282 -0.060779
			-0.867258  0.436294 -0.239817
			-0.894730  0.444632  0.041966
			-0.950549  0.298261  0.086584
			-0.928616  0.009179 -0.370927
			-0.987043 -0.021625  0.158995
			-0.977557 -0.210625 -0.004352
			-0.974741  0.182301  0.129021
			-0.844886  0.455770  0.280073
			-0.870987  0.435230  0.227939
			-0.860171  0.478227  0.177215
			-0.832628  0.520055  0.190454
			-0.833785  0.175963  0.523297
			-0.863319  0.395078  0.313997
			-0.976119 -0.193666 -0.098409
			-0.985020 -0.115482  0.128059
			-0.959179  0.281817  0.023530
			 0.144342  0.116124 -0.982691
			 0.170595  0.007632 -0.985312
			 0.107565  0.064704 -0.992090
			 0.208109  0.158494 -0.965179
			 0.151581  0.149123 -0.977131
			 0.263416  0.226897 -0.937619
			-0.503007  0.161577 -0.849044
			-0.313624  0.174744 -0.933330
			-0.124637  0.162881 -0.978742
			-0.093634  0.097602 -0.990811
			-0.228084  0.335880 -0.913872
			-0.069433  0.188756 -0.979566
			 0.063184  0.200539 -0.977646
			 0.175803  0.000882 -0.984425
			 0.364299 -0.231816 -0.901969
			 0.327581 -0.067821 -0.942386
			 0.607318 -0.479243 -0.633633
			 0.513800 -0.424256 -0.745665
			 0.856482 -0.485921  0.174123
			 0.868344 -0.373539  0.326261
			 0.860087 -0.509782 -0.019279
			 0.919842 -0.392254  0.005153
			 0.753975 -0.604802 -0.256390
			 0.672506 -0.513537 -0.532931
			 0.766121 -0.302595  0.567006
			 0.775463 -0.301273  0.554880
			 0.784239 -0.310688  0.537068
			 0.766356 -0.302393  0.566795
			 0.826815 -0.474141  0.302599
			 0.870761 -0.332109  0.362600
			 0.792313 -0.411230  0.450700
			 0.803822 -0.348383  0.482181
			 0.783186 -0.386412  0.487140
			 0.794362 -0.358680  0.490243
			 0.767420 -0.379623  0.516675
			-0.546889 -0.091951  0.832140
			 0.245844 -0.530314  0.811374
			 0.016362 -0.441934  0.896898
			-0.400572 -0.155792  0.902924
			-0.237369 -0.263188  0.935087
			 0.108060 -0.491426  0.864190
			 0.746209 -0.481181  0.460041
			 0.725149 -0.557282  0.404469
			 0.638138 -0.589156  0.495656
			 0.535213 -0.617513  0.576389
			 0.421050 -0.631432  0.651161
			 0.168883 -0.605678  0.777581
			 0.231697 -0.581390  0.779937
			 0.786619 -0.438862  0.434317
			-0.857735  0.360296 -0.366713
			-0.940772  0.338975  0.006689
			-0.946297  0.322354  0.024680
			-0.924582  0.331340  0.188048
			-0.980747  0.099045  0.168299
			-0.966616  0.126915  0.222589
			-0.977611  0.127979  0.167030
			-0.884568  0.310225 -0.348280
			-0.703540  0.241865 -0.668231
			-0.685625 -0.033878  0.727167
			-0.817202  0.172873  0.549815
			-0.989708  0.139060  0.033765
			-0.982471  0.167704  0.081408
			-0.937907  0.277514  0.208128
			-0.934994  0.061940  0.349212
			-0.922129 -0.088604  0.376599
			-0.920914 -0.199117  0.335068
			-0.962662 -0.217126  0.161676
			-0.922322  0.212442  0.322785
			-0.814442  0.495277  0.302299
			-0.819394  0.368747  0.438883
			-0.835510  0.513251  0.196206
			-0.825643  0.522427  0.213036
			-0.807748  0.425190  0.408359
			-0.960886 -0.037768  0.274356
			-0.977115  0.046070  0.207663
			 0.140468  0.222240 -0.964820
			-0.156160  0.107152 -0.981903
			 0.134551  0.038699 -0.990151
			 0.006541 -0.019392 -0.999791
			 0.334070  0.040110 -0.941694
			 0.336903  0.318351 -0.886087
			 0.305562  0.316865 -0.897902
			 0.278185  0.393982 -0.876009
			 0.201509  0.420107 -0.884819
			 0.045027  0.335215 -0.941065
			-0.538094  0.300266 -0.787588
			-0.271327  0.300308 -0.914438
			-0.405327  0.369552 -0.836147
			-0.124271  0.276098 -0.953062
			-0.280754  0.481546 -0.830235
			-0.380896  0.521332 -0.763630
			-0.421498  0.363116 -0.830955
			-0.202193  0.415325 -0.886918
			-0.052226  0.375073 -0.925523
			 0.105560  0.431918 -0.895714
			 0.529529 -0.226713 -0.817435
			 0.446472 -0.151841 -0.881820
			 0.504504 -0.052052 -0.861839
			 0.622667 -0.577502 -0.527993
			 0.617654 -0.364661 -0.696797
			 0.662497 -0.474499 -0.579611
			 0.811997 -0.579115  0.072708
			 0.805899 -0.560470 -0.190790
			 0.801978 -0.594145  0.061840
			 0.748345 -0.364969  0.553874
			 0.901807 -0.292673  0.317942
			 0.759715 -0.334583  0.557573
			 0.752002 -0.348299  0.559625
			 0.812840 -0.319937  0.486755
			 0.848834 -0.308595  0.429243
			 0.871497 -0.469537  0.141520
			 0.881137 -0.472801  0.007552
			 0.911643 -0.352439  0.211410
			 0.925076 -0.252615  0.283583
			 0.790202 -0.416290  0.449759
			 0.775726 -0.521293  0.355671
			 0.760780 -0.506942  0.405245
			 0.775257 -0.462609  0.430081
			 0.744093 -0.450606  0.493233
			-0.529958 -0.106301  0.841335
			-0.235316 -0.281182  0.930356
			-0.378659 -0.169338  0.909913