<?xml version="1.0"?>
<VTKFile type="PolyData" version="0.1" byte_order="LittleEndian" compressor="vtkZLibDataCompressor">
	<PolyData>
		<Piece NumberOfPoints="198" NumberOfVerts="0" NumberOfLines="0" NumberOfStrips="0" NumberOfPolys="392">
		<PointData Normals="Normals">
		<DataArray type="Float32" Name="Normals" NumberOfComponents="3" format="ascii">
			 0.285285 -0.607864  0.741022
			 0.142421 -0.193347  0.970738
			-0.039942 -0.642455  0.765281
			 0.502561 -0.368026  0.782297
			 0.037071 -0.909223  0.414656
			 0.455386 -0.797940  0.394861
			 0.434098  0.223991  0.872575
			 0.001626  0.320230  0.947338
			-0.513684 -0.070627  0.855067
			-0.401479 -0.744408  0.533546
			 0.805140  0.226780  0.548014
			 0.869177 -0.389883  0.304174
			-0.173591 -0.911539  0.372778
			 0.168787 -0.985126  0.032215
			 0.680144 -0.728198 -0.084446
			 0.758914  0.458002  0.462909
			 0.413633  0.460706  0.785275
			-0.075166  0.304761  0.949458
			 0.395482  0.369842  0.840721
			-0.563599  0.182039  0.805741
			-0.947211  0.022855  0.319795
			-0.688279 -0.486123  0.538476
			 0.872442  0.488279  0.020703
			 0.915809  0.359212  0.179615
			 0.888969 -0.199937 -0.412019
			 0.966154  0.178904 -0.185852
			-0.088927 -0.769897  0.631942
			 0.225234 -0.958761  0.173344
			 0.460278 -0.859187 -0.223478
			 0.247988 -0.735959 -0.629974
			 0.230445 -0.843262 -0.485597
			 0.674745 -0.278098 -0.683653
			 0.873452  0.246298  0.420024
			 0.953986  0.296221 -0.046510
			 0.343710  0.215108  0.914107
			-0.382833  0.151032  0.911388
			 0.509872  0.286902  0.810998
			-0.952240  0.010259  0.305179
			-0.978510  0.035914  0.203048
			-0.603767 -0.145584  0.783754
			-0.681885 -0.127299 -0.720297
			-0.771135 -0.110673 -0.626979
			-0.729473 -0.267271  0.629631
			 0.874160  0.427460 -0.230481
			 0.787763  0.240652 -0.567023
			-0.047452 -0.797245  0.601788
			 0.520534 -0.842304  0.139885
			-0.007928 -0.197799 -0.980211
			 0.023162 -0.583897 -0.811497
			 0.521889 -0.801879 -0.290899
			 0.682103 -0.015948 -0.731082
			 0.847817  0.172730  0.501368
			 0.932988  0.049379 -0.356504
			 0.993147  0.051030 -0.105145
			 0.851705  0.128817 -0.507942
			 0.836193  0.117146  0.535778
			-0.065868  0.104062  0.992387
			-0.908924 -0.012613  0.416770
			-0.847934 -0.108374 -0.518906
			-0.962102 -0.225848  0.152818
			 0.044111 -0.998753  0.023387
			-0.730595 -0.640964 -0.235366
			-0.402967 -0.166056 -0.900024
			 0.158945 -0.174965 -0.971660
			 0.795265 -0.065228 -0.602742
			 0.793247 -0.051160 -0.606747
			 0.792269  0.039158  0.608914
			-0.315753  0.003305  0.948836
			-0.946883 -0.041068  0.318944
			-0.857564 -0.053076 -0.511631
			-0.659031 -0.106441 -0.744545
			-0.214809 -0.131819 -0.967719
			 0.355823 -0.166270 -0.919644
			 0.076055 -0.141080 -0.987073
			 0.682751 -0.031464 -0.729973
			 0.778496  0.018685  0.627371
			-0.777243 -0.026777  0.628630
			-0.287737 -0.064421 -0.955540
			-0.563914 -0.031328 -0.825239
			-0.865759 -0.014544 -0.500251
			-0.518701 -0.118596 -0.846691
			 0.395668 -0.004998 -0.918380
			 0.642350 -0.032243  0.765733
			-0.642653  0.004897  0.766142
			-0.379497 -0.021647 -0.924940
			-0.314265 -0.068343 -0.946872
			-0.404248 -0.096163 -0.909580
			-0.835225 -0.044287 -0.548121
			-0.875793  0.081561  0.475745
			 0.646777 -0.101325 -0.755919
			 0.803583 -0.090472  0.588277
			-0.011423  0.013648  0.999842
			-0.258570  0.054751  0.964440
			 0.316921 -0.159096 -0.935013
			 0.441775 -0.301215 -0.845047
			-0.617494 -0.117880 -0.777692
			-0.299935 -0.176295 -0.937528
			-0.994760  0.011646 -0.101575
			-0.424584  0.221888  0.877778
			-0.794739  0.092965  0.599790
			 0.936098 -0.207706 -0.283866
			 0.456072 -0.196010  0.868089
			 0.951137 -0.295650  0.089046
			-0.201235 -0.081303  0.976163
			-0.363554  0.162296  0.917327
			 0.763218 -0.486125 -0.425652
			 0.084244 -0.384375 -0.919325
			-0.504021 -0.252255 -0.826033
			-0.780606 -0.165927 -0.602596
			-0.994629  0.030389  0.098942
			-0.026756  0.369713  0.928761
			-0.627106  0.036995  0.778055
			-0.228340  0.447395  0.864696
			-0.267177  0.005160  0.963634
			 0.374571  0.217470  0.901334
			 0.029054  0.339334  0.940217
			-0.988343  0.053641  0.142484
			 0.485460 -0.078419  0.870735
			 0.880830 -0.462687  0.100301
			 0.779683 -0.151399  0.607595
			 0.594873  0.154600  0.788812
			 0.085505 -0.680937 -0.727333
			 0.671812 -0.718458 -0.180240
			-0.577967 -0.348815 -0.737755
			-0.806756 -0.326928 -0.492202
			-0.669760 -0.426816 -0.607660
			-0.851498  0.084650 -0.517479
			-0.459388 -0.220265 -0.860492
			-0.522673  0.083775 -0.848407
			 0.492195  0.321220  0.809050
			-0.431036  0.147684  0.890167
			-0.839470  0.173373  0.515006
			 0.728750  0.574970  0.371932
			 0.964990  0.189795  0.181030
			 0.459386  0.039962  0.887337
			 0.601382  0.453613  0.657705
			-0.878702  0.406768 -0.249847
			-0.752008  0.596798  0.279852
			 0.750980 -0.647392  0.130048
			 0.778321 -0.425076  0.462090
			 0.540609  0.175851  0.822690
			-0.082232 -0.505450 -0.858929
			 0.137060 -0.582368 -0.801288
			 0.193995 -0.755914 -0.625268
			 0.690526  0.484301 -0.537239
			 0.859124  0.499360  0.112004
			 0.721956 -0.302189 -0.622463
			 0.666748  0.380061  0.641094
			-0.585317 -0.294491 -0.755433
			-0.696751  0.047285 -0.715753
			-0.458175 -0.123701 -0.880212
			-0.634290  0.458929 -0.622142
			-0.002172 -0.078884 -0.996881
			 0.005381  0.131809 -0.991260
			-0.359396  0.573141 -0.736440
			-0.259712  0.629286  0.732495
			 0.919644  0.392413  0.016331
			 0.736686  0.672052 -0.075098
			 0.361976  0.850891  0.380732
			 0.412676  0.853131  0.319165
			 0.939189 -0.284517  0.192284
			 0.931987  0.104132 -0.347212
			 0.422153 -0.023829  0.906211
			 0.509058  0.583669  0.632606
			-0.532051  0.819105 -0.214450
			-0.094676  0.971407  0.217725
			 0.521795  0.356986 -0.774784
			 0.486210  0.268011 -0.831727
			 0.440187  0.634017 -0.635813
			 0.406022  0.882686 -0.236666
			 0.339812  0.865201 -0.368721
			 0.027391  0.196990 -0.980023
			-0.503178  0.303999 -0.808948
			 0.343327  0.633587 -0.693321
			 0.259084  0.821170 -0.508484
			 0.013403  0.417520 -0.908569
			 0.639257  0.120815 -0.759443
			 0.606697  0.286895 -0.741357
			 0.026947  0.609907 -0.792015
			-0.096423  0.929049 -0.357169
			 0.505721  0.170258  0.845730
			 0.814032  0.342798 -0.468872
			 0.548348  0.836228 -0.006089
			 0.732343  0.423078 -0.533552
			 0.576962  0.604341 -0.549442
			 0.907853 -0.203964 -0.366334
			 0.696447 -0.706220  0.127338
			 0.410769  0.882423 -0.229342
			 0.551870  0.824670  0.123934
			 0.415429  0.785302  0.459042
			 0.769880  0.581430 -0.263103
			 0.561319  0.685281 -0.464016
			 0.590897  0.479715 -0.648625
			 0.871158  0.156999 -0.465226
			 0.795496 -0.509556 -0.327931
			 0.815090 -0.039574  0.577981
			 0.670889  0.494932 -0.552223
			 0.992686 -0.101998  0.064587
		</DataArray>
	</PointData>
	<Points>
		<DataArray type="Float32" NumberOfComponents="3" format="ascii">
			-0.019602 -0.238960  0.030211
			-0.020598 -0.236623  0.031492
			-0.020796 -0.238786  0.030619
			-0.015001 -0.237222  0.029151
			-0.019550 -0.240304  0.028368
			-0.014827 -0.239447  0.026853
			-0.016592 -0.234173  0.030639
			-0.020074 -0.234608  0.031254
			-0.022461 -0.237288  0.031144
			-0.022925 -0.239228  0.029231
			-0.013506 -0.234774  0.028364
			-0.012867 -0.237646  0.026801
			-0.023960 -0.240267  0.026001
			-0.018093 -0.241248  0.023140
			-0.014127 -0.239374  0.023570
			-0.016348 -0.229368  0.026166
			-0.018683 -0.228892  0.028238
			-0.022286 -0.221075  0.025288
			-0.019655 -0.223014  0.025690
			-0.024439 -0.218267  0.023754
			-0.028752 -0.231305  0.021221
			-0.024535 -0.239315  0.027092
			-0.014435 -0.232940  0.026270
			-0.012708 -0.235306  0.027118
			-0.014351 -0.238473  0.021053
			-0.012323 -0.235948  0.025752
			-0.024933 -0.240710  0.024899
			-0.022666 -0.241687  0.022193
			-0.016326 -0.240596  0.021019
			-0.018460 -0.240483  0.018616
			-0.021840 -0.240434  0.018638
			-0.015435 -0.239252  0.019921
			-0.019543 -0.217718  0.023394
			-0.015420 -0.230423  0.024107
			-0.021125 -0.207831  0.021445
			-0.024982 -0.205132  0.021004
			-0.020651 -0.214794  0.023242
			-0.028787 -0.200952  0.017313
			-0.029739 -0.237921  0.021799
			-0.026540 -0.240429  0.023772
			-0.028134 -0.238828  0.019600
			-0.027224 -0.223158  0.016887
			-0.025774 -0.239834  0.024887
			-0.014325 -0.234169  0.023413
			-0.014711 -0.234788  0.021858
			-0.027108 -0.244618  0.021918
			-0.023748 -0.242262  0.022190
			-0.023095 -0.231412  0.015459
			-0.026769 -0.243308  0.020365
			-0.024744 -0.242852  0.021659
			-0.021228 -0.229195  0.016456
			-0.019493 -0.214483  0.021724
			-0.018964 -0.216456  0.017597
			-0.019069 -0.212975  0.018276
			-0.017495 -0.227340  0.020382
			-0.020392 -0.192953  0.017966
			-0.026015 -0.175278  0.016865
			-0.030457 -0.180366  0.014461
			-0.029059 -0.189430  0.011870
			-0.029499 -0.240926  0.021762
			-0.027493 -0.244777  0.021586
			-0.028073 -0.244580  0.021329
			-0.025840 -0.205109  0.011770
			-0.023043 -0.216794  0.013247
			-0.020211 -0.216132  0.015707
			-0.021529 -0.189452  0.009697
			-0.020283 -0.175327  0.016093
			-0.029232 -0.134884  0.014987
			-0.031826 -0.152449  0.012843
			-0.030633 -0.151948  0.009064
			-0.028274 -0.175899  0.008900
			-0.025427 -0.180939  0.007886
			-0.022368 -0.209042  0.011933
			-0.023365 -0.197314  0.009761
			-0.022124 -0.180402  0.008603
			-0.019574 -0.126417  0.016750
			-0.033769 -0.107658  0.014034
			-0.026049 -0.166277  0.006546
			-0.028934 -0.126179  0.005644
			-0.033248 -0.072400  0.008988
			-0.026889 -0.175975  0.007732
			-0.026337 -0.126436  0.004773
			-0.021582 -0.092455  0.016932
			-0.033393 -0.072252  0.015033
			-0.028978 -0.095868  0.005336
			-0.027031 -0.064684  0.003121
			-0.026138 -0.055520  0.001971
			-0.031524 -0.049410  0.006074
			-0.033663 -0.048054  0.012832
			-0.025384 -0.082665  0.004606
			-0.019819 -0.049427  0.014320
			-0.026366 -0.073390  0.017236
			-0.024396 -0.035679  0.015301
			-0.023687 -0.060506  0.002336
			-0.019653 -0.033872 -0.002055
			-0.029020 -0.028621  0.001208
			-0.020442 -0.030485 -0.002488
			-0.033849 -0.029147  0.008478
			-0.022679 -0.015032  0.012608
			-0.031840 -0.013943  0.007829
			-0.021403 -0.060483  0.006139
			-0.018783 -0.035970  0.014411
			-0.013816 -0.032291  0.005964
			-0.021578 -0.028452  0.016578
			-0.019979 -0.020119  0.016258
			-0.013392 -0.028892  0.003047
			-0.018185 -0.028518 -0.003645
			-0.017227 -0.022116 -0.005779
			-0.032349 -0.010488  0.000250
			-0.032589 -0.013376  0.004695
			-0.019150 -0.017595  0.015859
			-0.031428 -0.008476  0.007624
			-0.020441 -0.014538  0.013625
			-0.028242 -0.004526  0.009126
			-0.018965 -0.005311  0.010492
			-0.019543 -0.009186  0.011443
			-0.032946 -0.005972  0.004770
			-0.017705 -0.027983  0.016940
			-0.011665 -0.026992  0.005706
			-0.015341 -0.025108  0.012789
			-0.019107 -0.020105  0.016263
			-0.015123 -0.021187 -0.007333
			-0.008430 -0.020094 -0.000625
			-0.022819 -0.006853 -0.006341
			-0.017539 -0.014239 -0.007487
			-0.015966 -0.015150 -0.011937
			-0.030838  0.002852 -0.005242
			-0.025068  0.000428 -0.009045
			-0.027525  0.004236 -0.007977
			-0.018422 -0.013412  0.013001
			-0.026540  0.003071  0.010627
			-0.031751 -0.001448  0.006432
			-0.014484 -0.010425  0.005489
			-0.014457 -0.002359 -0.002204
			-0.020520  0.005925  0.011209
			-0.015873 -0.011001  0.010776
			-0.031539  0.006980 -0.001610
			-0.031183  0.007355  0.001549
			-0.009841 -0.023711  0.006194
			-0.007115 -0.021409  0.007373
			-0.012734 -0.021631  0.009491
			-0.013942 -0.015155 -0.012941
			-0.012795 -0.016575 -0.011521
			-0.008620 -0.016937 -0.011184
			-0.001717 -0.014774 -0.004354
			-0.000690 -0.012362  0.001165
			-0.005008 -0.015836 -0.010910
			-0.002103 -0.013828  0.004727
			-0.021426 -0.005870 -0.008970
			-0.018690 -0.009547 -0.010447
			-0.015888 -0.012520 -0.013333
			-0.028157  0.007003 -0.006320
			-0.021839 -0.001799 -0.009651
			-0.021893  0.004190 -0.010036
			-0.024070  0.009057 -0.007748
			-0.019967  0.010836  0.009842
			-0.013645 -0.005001 -0.002483
			-0.011884 -0.007586 -0.002584
			-0.011258 -0.010491  0.002197
			-0.012302 -0.011907  0.005267
			-0.014668  0.002915 -0.001289
			-0.015427 -0.000138 -0.004547
			-0.018332  0.009735  0.010550
			-0.013303 -0.012243  0.009032
			-0.028565  0.009398 -0.002816
			-0.015967  0.013787  0.005561
			-0.013026 -0.012884 -0.013620
			-0.005946 -0.015757 -0.011621
			-0.007489 -0.012217 -0.004064
			-0.006763 -0.010966 -0.001673
			-0.008439 -0.013770 -0.005842
			-0.020470 -0.004911 -0.009439
			-0.016976 -0.010011 -0.012307
			-0.016778 -0.007853 -0.010241
			-0.015961 -0.009093 -0.012249
			-0.014780 -0.010606 -0.013322
			-0.018196 -0.002896 -0.008100
			-0.014468  0.011355 -0.006511
			-0.017574  0.012015 -0.006907
			-0.018606  0.013463 -0.004779
			-0.015603  0.011397  0.009114
			-0.013816 -0.005530 -0.003896
			-0.009526 -0.009620 -0.002196
			-0.016502 -0.006231 -0.008040
			-0.011589 -0.009399 -0.004907
			-0.014995  0.004075 -0.004556
			-0.011751  0.009659  0.000700
			-0.013313  0.013381 -0.002484
			-0.011656  0.013137  0.002664
			-0.013446  0.013086  0.006169
			-0.015386 -0.009729 -0.009701
			-0.011443 -0.012959 -0.007525
			-0.017339 -0.006151 -0.009151
			-0.010491  0.011122 -0.002263
			-0.013578  0.007945 -0.003882
			-0.011629  0.011343  0.005950
			-0.013545 -0.010500 -0.007061
			-0.009763  0.010873  0.001580
		</DataArray>
	</Points>
			<Polys>
				<DataArray type="Int32" Name="connectivity" format="ascii">
					0 1 2 
					1 0 3 
					0 2 4 
					3 0 5 
					0 4 5 
					1 3 6 
					7 1 6 
					7 8 1 
					1 8 2 
					9 4 2 
					9 2 8 
					10 6 3 
					11 10 3 
					11 3 5 
					12 4 9 
					4 13 5 
					12 13 4 
					14 11 5 
					5 13 14 
					6 15 16 
					15 6 10 
					16 7 6 
					17 8 7 
					17 7 18 
					16 18 7 
					19 8 17 
					8 19 20 
					21 8 20 
					8 21 9 
					9 21 12 
					15 10 22 
					10 23 22 
					10 11 23 
					14 24 11 
					24 25 11 
					11 25 23 
					12 21 26 
					12 26 27 
					12 27 13 
					14 13 28 
					29 13 30 
					13 29 28 
					27 30 13 
					28 31 14 
					31 24 14 
					32 18 15 
					16 15 18 
					15 22 33 
					32 15 33 
					34 35 17 
					36 17 18 
					36 34 17 
					19 17 35 
					18 32 36 
					35 37 19 
					19 37 20 
					20 38 39 
					38 20 40 
					20 37 41 
					42 21 20 
					39 42 20 
					41 40 20 
					26 21 42 
					22 23 43 
					43 33 22 
					25 43 23 
					44 24 31 
					24 44 25 
					25 44 43 
					45 46 26 
					45 26 42 
					27 26 46 
					46 30 27 
					31 28 29 
					30 47 29 
					31 29 47 
					48 30 49 
					30 48 47 
					49 30 46 
					50 31 47 
					31 50 44 
					36 32 51 
					33 52 32 
					52 53 32 
					53 51 32 
					33 43 54 
					33 54 52 
					36 51 34 
					51 55 34 
					34 55 56 
					56 35 34 
					56 57 35 
					37 35 57 
					57 58 37 
					41 37 58 
					59 39 38 
					38 40 59 
					45 42 39 
					39 60 45 
					39 59 61 
					39 61 60 
					40 41 47 
					40 61 59 
					40 48 61 
					40 47 48 
					62 63 41 
					63 47 41 
					58 62 41 
					44 54 43 
					44 50 54 
					49 46 45 
					49 45 60 
					47 63 50 
					49 60 48 
					48 60 61 
					50 64 52 
					64 50 63 
					52 54 50 
					53 55 51 
					52 64 53 
					65 55 53 
					65 53 64 
					66 56 55 
					66 55 65 
					56 66 67 
					57 56 67 
					68 69 57 
					57 67 68 
					58 57 69 
					69 70 58 
					62 58 71 
					70 71 58 
					72 62 73 
					71 73 62 
					62 72 63 
					72 64 63 
					72 65 64 
					72 73 65 
					65 73 71 
					65 71 74 
					74 66 65 
					66 74 75 
					67 66 75 
					67 75 76 
					68 67 76 
					68 76 69 
					70 69 77 
					77 69 78 
					79 78 69 
					69 76 79 
					80 70 77 
					71 70 80 
					77 74 71 
					77 71 80 
					81 74 77 
					74 81 75 
					82 76 75 
					75 81 82 
					76 82 83 
					79 76 83 
					78 81 77 
					84 81 78 
					78 79 84 
					84 79 85 
					85 79 86 
					86 79 87 
					83 88 79 
					87 79 88 
					81 84 89 
					81 89 82 
					82 89 90 
					82 90 91 
					83 82 91 
					91 92 83 
					92 88 83 
					85 89 84 
					89 85 93 
					85 86 93 
					93 86 94 
					86 87 95 
					96 86 95 
					86 96 94 
					87 88 97 
					87 97 95 
					92 98 88 
					99 97 88 
					88 98 99 
					90 89 100 
					100 89 93 
					92 91 90 
					92 90 101 
					102 90 100 
					102 101 90 
					103 92 101 
					104 92 103 
					98 92 104 
					93 94 100 
					94 105 102 
					100 94 102 
					106 94 96 
					106 105 94 
					95 107 96 
					97 108 95 
					95 108 107 
					106 96 107 
					108 97 109 
					109 97 99 
					110 98 104 
					111 99 98 
					112 98 110 
					113 98 114 
					113 111 98 
					115 98 112 
					98 115 114 
					99 111 116 
					109 99 116 
					117 103 101 
					117 101 102 
					118 102 105 
					119 117 102 
					118 119 102 
					117 104 103 
					120 110 104 
					120 104 117 
					106 121 105 
					122 105 121 
					105 122 118 
					106 107 121 
					108 123 107 
					107 123 124 
					125 107 124 
					107 125 121 
					109 116 108 
					116 126 108 
					127 123 108 
					128 108 126 
					108 128 127 
					129 112 110 
					129 110 120 
					130 111 113 
					131 111 130 
					111 131 116 
					129 115 112 
					130 113 114 
					114 132 133 
					134 130 114 
					115 135 114 
					134 114 133 
					132 114 135 
					129 135 115 
					116 136 126 
					136 116 137 
					137 116 131 
					120 117 119 
					138 118 122 
					138 119 118 
					119 139 140 
					139 119 138 
					140 120 119 
					140 129 120 
					141 121 125 
					121 141 142 
					143 121 142 
					121 143 122 
					122 144 145 
					144 122 146 
					143 146 122 
					145 147 122 
					139 138 122 
					147 139 122 
					123 148 124 
					127 148 123 
					124 149 125 
					149 124 148 
					141 125 150 
					149 150 125 
					151 126 136 
					151 128 126 
					127 152 148 
					153 152 127 
					128 153 127 
					153 128 154 
					151 154 128 
					135 129 140 
					155 130 134 
					130 137 131 
					137 130 155 
					156 132 157 
					158 157 132 
					156 133 132 
					159 158 132 
					159 132 135 
					133 160 134 
					160 133 161 
					161 133 156 
					162 155 134 
					160 162 134 
					140 163 135 
					159 135 163 
					136 164 151 
					136 137 164 
					165 164 137 
					137 155 165 
					139 147 140 
					163 140 147 
					141 150 166 
					142 141 166 
					142 166 143 
					167 143 166 
					167 146 143 
					168 169 144 
					169 145 144 
					170 168 144 
					170 144 146 
					169 158 145 
					147 145 158 
					170 146 167 
					159 147 158 
					159 163 147 
					171 149 148 
					171 148 152 
					149 172 150 
					173 174 149 
					172 149 174 
					171 173 149 
					150 172 175 
					166 150 175 
					151 164 154 
					171 152 176 
					153 176 152 
					177 176 153 
					153 178 177 
					153 154 178 
					178 154 179 
					164 179 154 
					162 180 155 
					165 155 180 
					161 156 181 
					181 156 157 
					182 157 158 
					157 183 181 
					157 182 184 
					184 183 157 
					169 182 158 
					161 185 160 
					185 186 160 
					180 160 186 
					160 180 162 
					161 181 176 
					185 161 176 
					179 164 165 
					179 165 187 
					187 165 188 
					165 180 189 
					189 188 165 
					166 190 191 
					166 191 170 
					170 167 166 
					174 166 175 
					166 174 190 
					168 184 169 
					168 170 191 
					191 184 168 
					182 169 184 
					171 192 173 
					176 192 171 
					175 172 174 
					190 173 192 
					174 173 190 
					181 183 176 
					185 176 177 
					192 176 183 
					187 177 179 
					177 178 179 
					193 177 187 
					185 177 194 
					177 193 194 
					195 189 180 
					186 195 180 
					196 183 184 
					183 196 190 
					190 192 183 
					196 184 191 
					185 194 186 
					186 197 195 
					197 186 194 
					193 187 197 
					188 197 187 
					197 188 195 
					189 195 188 
					191 190 196 
					193 197 194 
				</DataArray>
				<DataArray type="Int32" Name="offsets" format="ascii">
					3 6 9 12 15 18 21 24 27 30 33 36 39 42 45 48 51 54 57 60 63 66 69 72 75 78 81 84 87 90 93 96 99 102 105 108 111 114 117 120 123 126 129 132 135 138 141 144 147 150 153 156 159 162 165 168 171 174 177 180 183 186 189 192 195 198 201 204 207 210 213 216 219 222 225 228 231 234 237 240 243 246 249 252 255 258 261 264 267 270 273 276 279 282 285 288 291 294 297 300 303 306 309 312 315 318 321 324 327 330 333 336 339 342 345 348 351 354 357 360 363 366 369 372 375 378 381 384 387 390 393 396 399 402 405 408 411 414 417 420 423 426 429 432 435 438 441 444 447 450 453 456 459 462 465 468 471 474 477 480 483 486 489 492 495 498 501 504 507 510 513 516 519 522 525 528 531 534 537 540 543 546 549 552 555 558 561 564 567 570 573 576 579 582 585 588 591 594 597 600 603 606 609 612 615 618 621 624 627 630 633 636 639 642 645 648 651 654 657 660 663 666 669 672 675 678 681 684 687 690 693 696 699 702 705 708 711 714 717 720 723 726 729 732 735 738 741 744 747 750 753 756 759 762 765 768 771 774 777 780 783 786 789 792 795 798 801 804 807 810 813 816 819 822 825 828 831 834 837 840 843 846 849 852 855 858 861 864 867 870 873 876 879 882 885 888 891 894 897 900 903 906 909 912 915 918 921 924 927 930 933 936 939 942 945 948 951 954 957 960 963 966 969 972 975 978 981 984 987 990 993 996 999 1002 1005 1008 1011 1014 1017 1020 1023 1026 1029 1032 1035 1038 1041 1044 1047 1050 1053 1056 1059 1062 1065 1068 1071 1074 1077 1080 1083 1086 1089 1092 1095 1098 1101 1104 1107 1110 1113 1116 1119 1122 1125 1128 1131 1134 1137 1140 1143 1146 1149 1152 1155 1158 1161 1164 1167 1170 1173 1176 
				</DataArray>
			</Polys>
		</Piece>
	</PolyData>
</VTKFile>
