<?xml version="1.0"?>
<VTKFile type="PolyData" version="0.1" byte_order="LittleEndian" compressor="vtkZLibDataCompressor">
	<PolyData>
		<Piece NumberOfPoints="198" NumberOfVerts="0" NumberOfLines="0" NumberOfStrips="0" NumberOfPolys="392">
		<PointData Normals="Normals">
		<DataArray type="Float32" Name="Normals" NumberOfComponents="3" format="ascii">
			 0.285276 -0.607859 -0.741030
			 0.142427 -0.193357 -0.970735
			-0.039944 -0.642452 -0.765284
			 0.502563 -0.368019 -0.782299
			 0.037068 -0.909223 -0.414655
			 0.455387 -0.797941 -0.394858
			 0.434105  0.223984 -0.872573
			 0.001648  0.320218 -0.947343
			-0.513675 -0.070636 -0.855072
			-0.401482 -0.744406 -0.533547
			 0.805141  0.226777 -0.548014
			 0.869171 -0.389888 -0.304186
			-0.173605 -0.911537 -0.372777
			 0.168781 -0.985127 -0.032215
			 0.680144 -0.728200  0.084439
			 0.758917  0.457998 -0.462908
			 0.413648  0.460704 -0.785268
			-0.075163  0.304763 -0.949458
			 0.395490  0.369842 -0.840717
			-0.563589  0.182044 -0.805746
			-0.947210  0.022852 -0.319798
			-0.688280 -0.486125 -0.538473
			 0.872444  0.488275 -0.020712
			 0.915801  0.359216 -0.179646
			 0.888971 -0.199936  0.412014
			 0.966156  0.178905  0.185836
			-0.088925 -0.769901 -0.631938
			 0.225216 -0.958767 -0.173332
			 0.460265 -0.859196  0.223468
			 0.247972 -0.735964  0.629974
			 0.230445 -0.843260  0.485601
			 0.674747 -0.278095  0.683652
			 0.873448  0.246303 -0.420028
			 0.953987  0.296220  0.046506
			 0.343700  0.215107 -0.914111
			-0.382830  0.151034 -0.911389
			 0.509868  0.286902 -0.811001
			-0.952236  0.010262 -0.305190
			-0.978510  0.035917 -0.203049
			-0.603765 -0.145588 -0.783755
			-0.681886 -0.127294  0.720297
			-0.771133 -0.110674  0.626981
			-0.729458 -0.267288 -0.629641
			 0.874160  0.427464  0.230478
			 0.787760  0.240648  0.567029
			-0.047413 -0.797214 -0.601832
			 0.520520 -0.842310 -0.139907
			-0.007932 -0.197799  0.980211
			 0.023177 -0.583907  0.811490
			 0.521910 -0.801892  0.290825
			 0.682098 -0.015949  0.731087
			 0.847808  0.172737 -0.501381
			 0.932988  0.049376  0.356505
			 0.993147  0.051033  0.105142
			 0.851702  0.128816  0.507947
			 0.836189  0.117147 -0.535784
			-0.065879  0.104061 -0.992387
			-0.908923 -0.012612 -0.416774
			-0.847934 -0.108373  0.518906
			-0.962106 -0.225837 -0.152809
			 0.044150 -0.998749 -0.023487
			-0.730593 -0.640967  0.235363
			-0.402968 -0.166057  0.900023
			 0.158938 -0.174965  0.971661
			 0.795260 -0.065231  0.602749
			 0.793245 -0.051161  0.606750
			 0.792265  0.039158 -0.608920
			-0.315756  0.003304 -0.948835
			-0.946885 -0.041068 -0.318939
			-0.857561 -0.053076  0.511637
			-0.659035 -0.106443  0.744542
			-0.214811 -0.131820  0.967719
			 0.355816 -0.166272  0.919646
			 0.076053 -0.141081  0.987072
			 0.682751 -0.031463  0.729974
			 0.778495  0.018685 -0.627372
			-0.777243 -0.026777 -0.628630
			-0.287739 -0.064420  0.955540
			-0.563915 -0.031328  0.825238
			-0.865757 -0.014544  0.500253
			-0.518707 -0.118599  0.846686
			 0.395663 -0.004998  0.918382
			 0.642349 -0.032241 -0.765734
			-0.642649  0.004899 -0.766145
			-0.379495 -0.021648  0.924941
			-0.314259 -0.068345  0.946874
			-0.404251 -0.096162  0.909579
			-0.835226 -0.044287  0.548121
			-0.875793  0.081561 -0.475747
			 0.646779 -0.101326  0.755917
			 0.803580 -0.090471 -0.588281
			-0.011424  0.013650 -0.999842
			-0.258574  0.054752 -0.964438
			 0.316920 -0.159097  0.935013
			 0.441768 -0.301213  0.845051
			-0.617493 -0.117880  0.777693
			-0.299951 -0.176287  0.937525
			-0.994760  0.011647  0.101571
			-0.424588  0.221890 -0.877775
			-0.794737  0.092963 -0.599792
			 0.936097 -0.207706  0.283866
			 0.456068 -0.196008 -0.868092
			 0.951139 -0.295646 -0.089046
			-0.201233 -0.081304 -0.976163
			-0.363557  0.162301 -0.917325
			 0.763220 -0.486123  0.425652
			 0.084218 -0.384366  0.919331
			-0.504036 -0.252249  0.826026
			-0.780608 -0.165925  0.602594
			-0.994628  0.030390 -0.098950
			-0.026761  0.369720 -0.928758
			-0.627101  0.036995 -0.778059
			-0.228339  0.447392 -0.864698
			-0.267168  0.005158 -0.963636
			 0.374567  0.217475 -0.901335
			 0.029052  0.339337 -0.940216
			-0.988342  0.053643 -0.142488
			 0.485459 -0.078420 -0.870735
			 0.880830 -0.462686 -0.100302
			 0.779683 -0.151403 -0.607595
			 0.594865  0.154605 -0.788817
			 0.085493 -0.680936  0.727336
			 0.671813 -0.718457  0.180240
			-0.577961 -0.348816  0.737760
			-0.806759 -0.326928  0.492198
			-0.669759 -0.426817  0.607660
			-0.851501  0.084650  0.517475
			-0.459381 -0.220262  0.860496
			-0.522671  0.083780  0.848408
			 0.492193  0.321220 -0.809051
			-0.431031  0.147678 -0.890170
			-0.839468  0.173374 -0.515009
			 0.728755  0.574965 -0.371930
			 0.964992  0.189792 -0.181025
			 0.459386  0.039957 -0.887338
			 0.601386  0.453612 -0.657702
			-0.878702  0.406767  0.249848
			-0.752008  0.596798 -0.279849
			 0.750978 -0.647395 -0.130047
			 0.778320 -0.425076 -0.462092
			 0.540611  0.175848 -0.822689
			-0.082232 -0.505450  0.858928
			 0.137047 -0.582365  0.801292
			 0.194001 -0.755907  0.625275
			 0.690523  0.484303  0.537242
			 0.859122  0.499364 -0.112004
			 0.721956 -0.302173  0.622471
			 0.666747  0.380067 -0.641091
			-0.585325 -0.294496  0.755425
			-0.696756  0.047288  0.715748
			-0.458163 -0.123706  0.880218
			-0.634290  0.458932  0.622140
			-0.002173 -0.078882  0.996882
			 0.005388  0.131813  0.991260
			-0.359389  0.573144  0.736441
			-0.259710  0.629282 -0.732499
			 0.919645  0.392412 -0.016320
			 0.736681  0.672057  0.075095
			 0.361981  0.850889 -0.380734
			 0.412681  0.853129 -0.319162
			 0.939188 -0.284519 -0.192285
			 0.931987  0.104129  0.347214
			 0.422146 -0.023839 -0.906214
			 0.509059  0.583674 -0.632601
			-0.532046  0.819107  0.214453
			-0.094674  0.971408 -0.217724
			 0.521793  0.356982  0.774788
			 0.486212  0.268023  0.831722
			 0.440194  0.634009  0.635816
			 0.406025  0.882687  0.236659
			 0.339823  0.865193  0.368729
			 0.027392  0.196992  0.980022
			-0.503155  0.304029  0.808951
			 0.343334  0.633587  0.693318
			 0.259095  0.821173  0.508473
			 0.013434  0.417534  0.908562
			 0.639262  0.120819  0.759439
			 0.606695  0.286893  0.741360
			 0.026950  0.609904  0.792017
			-0.096424  0.929048  0.357173
			 0.505720  0.170255 -0.845731
			 0.814030  0.342807  0.468870
			 0.548351  0.836226  0.006081
			 0.732337  0.423085  0.533556
			 0.576964  0.604341  0.549440
			 0.907853 -0.203966  0.366335
			 0.696453 -0.706214 -0.127337
			 0.410767  0.882423  0.229346
			 0.551864  0.824673 -0.123936
			 0.415432  0.785302 -0.459039
			 0.769872  0.581437  0.263114
			 0.561328  0.685270  0.464021
			 0.590897  0.479715  0.648625
			 0.871154  0.157005  0.465231
			 0.795499 -0.509547  0.327937
			 0.815094 -0.039564 -0.577976
			 0.670887  0.494935  0.552223
			 0.992688 -0.101976 -0.064579
		</DataArray>
	</PointData>
	<Points>
		<DataArray type="Float32" NumberOfComponents="3" format="ascii">
			-0.019602 -0.238960 -0.030211
			-0.020598 -0.236623 -0.031492
			-0.020796 -0.238786 -0.030619
			-0.015001 -0.237222 -0.029151
			-0.019550 -0.240304 -0.028368
			-0.014827 -0.239447 -0.026853
			-0.016592 -0.234173 -0.030639
			-0.020074 -0.234608 -0.031254
			-0.022461 -0.237288 -0.031144
			-0.022925 -0.239228 -0.029231
			-0.013506 -0.234774 -0.028364
			-0.012867 -0.237646 -0.026801
			-0.023960 -0.240267 -0.026001
			-0.018093 -0.241248 -0.023140
			-0.014127 -0.239374 -0.023570
			-0.016348 -0.229368 -0.026166
			-0.018683 -0.228892 -0.028238
			-0.022286 -0.221075 -0.025288
			-0.019655 -0.223014 -0.025690
			-0.024439 -0.218267 -0.023754
			-0.028752 -0.231305 -0.021221
			-0.024535 -0.239315 -0.027092
			-0.014435 -0.232940 -0.026270
			-0.012708 -0.235306 -0.027118
			-0.014351 -0.238473 -0.021053
			-0.012323 -0.235948 -0.025752
			-0.024933 -0.240710 -0.024899
			-0.022666 -0.241687 -0.022193
			-0.016326 -0.240596 -0.021019
			-0.018460 -0.240483 -0.018616
			-0.021840 -0.240434 -0.018638
			-0.015435 -0.239252 -0.019921
			-0.019543 -0.217718 -0.023394
			-0.015420 -0.230423 -0.024107
			-0.021125 -0.207831 -0.021445
			-0.024982 -0.205132 -0.021004
			-0.020651 -0.214794 -0.023242
			-0.028787 -0.200952 -0.017313
			-0.029739 -0.237921 -0.021799
			-0.026540 -0.240429 -0.023772
			-0.028134 -0.238828 -0.019600
			-0.027224 -0.223158 -0.016887
			-0.025774 -0.239834 -0.024887
			-0.014325 -0.234169 -0.023413
			-0.014711 -0.234788 -0.021858
			-0.027108 -0.244618 -0.021918
			-0.023748 -0.242262 -0.022190
			-0.023095 -0.231412 -0.015459
			-0.026769 -0.243308 -0.020365
			-0.024744 -0.242852 -0.021659
			-0.021228 -0.229195 -0.016456
			-0.019493 -0.214483 -0.021724
			-0.018964 -0.216456 -0.017597
			-0.019069 -0.212975 -0.018276
			-0.017495 -0.227340 -0.020382
			-0.020392 -0.192953 -0.017966
			-0.026015 -0.175278 -0.016865
			-0.030457 -0.180366 -0.014461
			-0.029059 -0.189430 -0.011870
			-0.029499 -0.240926 -0.021762
			-0.027493 -0.244777 -0.021586
			-0.028073 -0.244580 -0.021329
			-0.025840 -0.205109 -0.011770
			-0.023043 -0.216794 -0.013247
			-0.020211 -0.216132 -0.015707
			-0.021529 -0.189452 -0.009697
			-0.020283 -0.175327 -0.016093
			-0.029232 -0.134884 -0.014987
			-0.031826 -0.152449 -0.012843
			-0.030633 -0.151948 -0.009064
			-0.028274 -0.175899 -0.008900
			-0.025427 -0.180939 -0.007886
			-0.022368 -0.209042 -0.011933
			-0.023365 -0.197314 -0.009761
			-0.022124 -0.180402 -0.008603
			-0.019574 -0.126417 -0.016750
			-0.033769 -0.107658 -0.014034
			-0.026049 -0.166277 -0.006546
			-0.028934 -0.126179 -0.005644
			-0.033248 -0.072400 -0.008988
			-0.026889 -0.175975 -0.007732
			-0.026337 -0.126436 -0.004773
			-0.021582 -0.092455 -0.016932
			-0.033393 -0.072252 -0.015033
			-0.028978 -0.095868 -0.005336
			-0.027031 -0.064684 -0.003121
			-0.026138 -0.055520 -0.001971
			-0.031524 -0.049410 -0.006074
			-0.033663 -0.048054 -0.012832
			-0.025384 -0.082665 -0.004606
			-0.019819 -0.049427 -0.014320
			-0.026366 -0.073390 -0.017236
			-0.024396 -0.035679 -0.015301
			-0.023687 -0.060506 -0.002336
			-0.019653 -0.033872  0.002055
			-0.029020 -0.028621 -0.001208
			-0.020442 -0.030485  0.002488
			-0.033849 -0.029147 -0.008478
			-0.022679 -0.015032 -0.012608
			-0.031840 -0.013943 -0.007829
			-0.021403 -0.060483 -0.006139
			-0.018783 -0.035970 -0.014411
			-0.013816 -0.032291 -0.005964
			-0.021578 -0.028452 -0.016578
			-0.019979 -0.020119 -0.016258
			-0.013392 -0.028892 -0.003047
			-0.018185 -0.028518  0.003645
			-0.017227 -0.022116  0.005779
			-0.032349 -0.010488 -0.000250
			-0.032589 -0.013376 -0.004695
			-0.019150 -0.017595 -0.015859
			-0.031428 -0.008476 -0.007624
			-0.020441 -0.014538 -0.013625
			-0.028242 -0.004526 -0.009126
			-0.018965 -0.005311 -0.010492
			-0.019543 -0.009186 -0.011443
			-0.032946 -0.005972 -0.004770
			-0.017705 -0.027983 -0.016940
			-0.011665 -0.026992 -0.005706
			-0.015341 -0.025108 -0.012789
			-0.019107 -0.020105 -0.016263
			-0.015123 -0.021187  0.007333
			-0.008430 -0.020094  0.000625
			-0.022819 -0.006853  0.006341
			-0.017539 -0.014239  0.007487
			-0.015966 -0.015150  0.011937
			-0.030838  0.002852  0.005242
			-0.025068  0.000428  0.009045
			-0.027525  0.004236  0.007977
			-0.018422 -0.013412 -0.013001
			-0.026540  0.003071 -0.010627
			-0.031751 -0.001448 -0.006432
			-0.014484 -0.010425 -0.005489
			-0.014457 -0.002359  0.002204
			-0.020520  0.005925 -0.011209
			-0.015873 -0.011001 -0.010776
			-0.031539  0.006980  0.001610
			-0.031183  0.007355 -0.001549
			-0.009841 -0.023711 -0.006194
			-0.007115 -0.021409 -0.007373
			-0.012734 -0.021631 -0.009491
			-0.013942 -0.015155  0.012941
			-0.012795 -0.016575  0.011521
			-0.008620 -0.016937  0.011184
			-0.001717 -0.014774  0.004354
			-0.000690 -0.012362 -0.001165
			-0.005008 -0.015836  0.010910
			-0.002103 -0.013828 -0.004727
			-0.021426 -0.005870  0.008970
			-0.018690 -0.009547  0.010447
			-0.015888 -0.012520  0.013333
			-0.028157  0.007003  0.006320
			-0.021839 -0.001799  0.009651
			-0.021893  0.004190  0.010036
			-0.024070  0.009057  0.007748
			-0.019967  0.010836 -0.009842
			-0.013645 -0.005001  0.002483
			-0.011884 -0.007586  0.002584
			-0.011258 -0.010491 -0.002197
			-0.012302 -0.011907 -0.005267
			-0.014668  0.002915  0.001289
			-0.015427 -0.000138  0.004547
			-0.018332  0.009735 -0.010550
			-0.013303 -0.012243 -0.009032
			-0.028565  0.009398  0.002816
			-0.015967  0.013787 -0.005561
			-0.013026 -0.012884  0.013620
			-0.005946 -0.015757  0.011621
			-0.007489 -0.012217  0.004064
			-0.006763 -0.010966  0.001673
			-0.008439 -0.013770  0.005842
			-0.020470 -0.004911  0.009439
			-0.016976 -0.010011  0.012307
			-0.016778 -0.007853  0.010241
			-0.015961 -0.009093  0.012249
			-0.014780 -0.010606  0.013322
			-0.018196 -0.002896  0.008100
			-0.014468  0.011355  0.006511
			-0.017574  0.012015  0.006907
			-0.018606  0.013463  0.004779
			-0.015603  0.011397 -0.009114
			-0.013816 -0.005530  0.003896
			-0.009526 -0.009620  0.002196
			-0.016502 -0.006231  0.008040
			-0.011589 -0.009399  0.004907
			-0.014995  0.004075  0.004556
			-0.011751  0.009659 -0.000700
			-0.013313  0.013381  0.002484
			-0.011656  0.013137 -0.002664
			-0.013446  0.013086 -0.006169
			-0.015386 -0.009729  0.009701
			-0.011443 -0.012959  0.007525
			-0.017339 -0.006151  0.009151
			-0.010491  0.011122  0.002263
			-0.013578  0.007945  0.003882
			-0.011629  0.011343 -0.005950
			-0.013545 -0.010500  0.007061
			-0.009763  0.010873 -0.001580
		</DataArray>
	</Points>
			<Polys>
				<DataArray type="Int32" Name="connectivity" format="ascii">
					2 1 0 
					3 0 1 
					4 2 0 
					5 0 3 
					5 4 0 
					6 3 1 
					6 1 7 
					1 8 7 
					2 8 1 
					2 4 9 
					8 2 9 
					3 6 10 
					3 10 11 
					5 3 11 
					9 4 12 
					5 13 4 
					4 13 12 
					5 11 14 
					14 13 5 
					16 15 6 
					10 6 15 
					6 7 16 
					7 8 17 
					18 7 17 
					7 18 16 
					17 8 19 
					20 19 8 
					20 8 21 
					9 21 8 
					12 21 9 
					22 10 15 
					22 23 10 
					23 11 10 
					11 24 14 
					11 25 24 
					23 25 11 
					26 21 12 
					27 26 12 
					13 27 12 
					28 13 14 
					30 13 29 
					28 29 13 
					13 30 27 
					14 31 28 
					14 24 31 
					15 18 32 
					18 15 16 
					33 22 15 
					33 15 32 
					17 35 34 
					18 17 36 
					17 34 36 
					35 17 19 
					36 32 18 
					19 37 35 
					20 37 19 
					39 38 20 
					40 20 38 
					41 37 20 
					20 21 42 
					20 42 39 
					20 40 41 
					42 21 26 
					43 23 22 
					22 33 43 
					23 43 25 
					31 24 44 
					25 44 24 
					43 44 25 
					26 46 45 
					42 26 45 
					46 26 27 
					27 30 46 
					29 28 31 
					29 47 30 
					47 29 31 
					49 30 48 
					47 48 30 
					46 30 49 
					47 31 50 
					44 50 31 
					51 32 36 
					32 52 33 
					32 53 52 
					32 51 53 
					54 43 33 
					52 54 33 
					34 51 36 
					34 55 51 
					56 55 34 
					34 35 56 
					35 57 56 
					57 35 37 
					37 58 57 
					58 37 41 
					38 39 59 
					59 40 38 
					39 42 45 
					45 60 39 
					61 59 39 
					60 61 39 
					47 41 40 
					59 61 40 
					61 48 40 
					48 47 40 
					41 63 62 
					41 47 63 
					41 62 58 
					43 54 44 
					54 50 44 
					45 46 49 
					60 45 49 
					50 63 47 
					48 60 49 
					61 60 48 
					52 64 50 
					63 50 64 
					50 54 52 
					51 55 53 
					53 64 52 
					53 55 65 
					64 53 65 
					55 56 66 
					65 55 66 
					67 66 56 
					67 56 57 
					57 69 68 
					68 67 57 
					69 57 58 
					58 70 69 
					71 58 62 
					58 71 70 
					73 62 72 
					62 73 71 
					63 72 62 
					63 64 72 
					64 65 72 
					65 73 72 
					71 73 65 
					74 71 65 
					65 66 74 
					75 74 66 
					75 66 67 
					76 75 67 
					76 67 68 
					69 76 68 
					77 69 70 
					78 69 77 
					69 78 79 
					79 76 69 
					77 70 80 
					80 70 71 
					71 74 77 
					80 71 77 
					77 74 81 
					75 81 74 
					75 76 82 
					82 81 75 
					83 82 76 
					83 76 79 
					77 81 78 
					78 81 84 
					84 79 78 
					85 79 84 
					86 79 85 
					87 79 86 
					79 88 83 
					88 79 87 
					89 84 81 
					82 89 81 
					90 89 82 
					91 90 82 
					91 82 83 
					83 92 91 
					83 88 92 
					84 89 85 
					93 85 89 
					93 86 85 
					94 86 93 
					95 87 86 
					95 86 96 
					94 96 86 
					97 88 87 
					95 97 87 
					88 98 92 
					88 97 99 
					99 98 88 
					100 89 90 
					93 89 100 
					90 91 92 
					101 90 92 
					100 90 102 
					90 101 102 
					101 92 103 
					103 92 104 
					104 92 98 
					100 94 93 
					102 105 94 
					102 94 100 
					96 94 106 
					94 105 106 
					96 107 95 
					95 108 97 
					107 108 95 
					107 96 106 
					109 97 108 
					99 97 109 
					104 98 110 
					98 99 111 
					110 98 112 
					114 98 113 
					98 111 113 
					112 98 115 
					114 115 98 
					116 111 99 
					116 99 109 
					101 103 117 
					102 101 117 
					105 102 118 
					102 117 119 
					102 119 118 
					103 104 117 
					104 110 120 
					117 104 120 
					105 121 106 
					121 105 122 
					118 122 105 
					121 107 106 
					107 123 108 
					124 123 107 
					124 107 125 
					121 125 107 
					108 116 109 
					108 126 116 
					108 123 127 
					126 108 128 
					127 128 108 
					110 112 129 
					120 110 129 
					113 111 130 
					130 111 131 
					116 131 111 
					112 115 129 
					114 113 130 
					133 132 114 
					114 130 134 
					114 135 115 
					133 114 134 
					135 114 132 
					115 135 129 
					126 136 116 
					137 116 136 
					131 116 137 
					119 117 120 
					122 118 138 
					118 119 138 
					140 139 119 
					138 119 139 
					119 120 140 
					120 129 140 
					125 121 141 
					142 141 121 
					142 121 143 
					122 143 121 
					145 144 122 
					146 122 144 
					122 146 143 
					122 147 145 
					122 138 139 
					122 139 147 
					124 148 123 
					123 148 127 
					125 149 124 
					148 124 149 
					150 125 141 
					125 150 149 
					136 126 151 
					126 128 151 
					148 152 127 
					127 152 153 
					127 153 128 
					154 128 153 
					128 154 151 
					140 129 135 
					134 130 155 
					131 137 130 
					155 130 137 
					157 132 156 
					132 157 158 
					132 133 156 
					132 158 159 
					135 132 159 
					134 160 133 
					161 133 160 
					156 133 161 
					134 155 162 
					134 162 160 
					135 163 140 
					163 135 159 
					151 164 136 
					164 137 136 
					137 164 165 
					165 155 137 
					140 147 139 
					147 140 163 
					166 150 141 
					166 141 142 
					143 166 142 
					166 143 167 
					143 146 167 
					144 169 168 
					144 145 169 
					144 168 170 
					146 144 170 
					145 158 169 
					158 145 147 
					167 146 170 
					158 147 159 
					147 163 159 
					148 149 171 
					152 148 171 
					150 172 149 
					149 174 173 
					174 149 172 
					149 173 171 
					175 172 150 
					175 150 166 
					154 164 151 
					176 152 171 
					152 176 153 
					153 176 177 
					177 178 153 
					178 154 153 
					179 154 178 
					154 179 164 
					155 180 162 
					180 155 165 
					181 156 161 
					157 156 181 
					158 157 182 
					181 183 157 
					184 182 157 
					157 183 184 
					158 182 169 
					160 185 161 
					160 186 185 
					186 160 180 
					162 180 160 
					176 181 161 
					176 161 185 
					165 164 179 
					187 165 179 
					188 165 187 
					189 180 165 
					165 188 189 
					191 190 166 
					170 191 166 
					166 167 170 
					175 166 174 
					190 174 166 
					169 184 168 
					191 170 168 
					168 184 191 
					184 169 182 
					173 192 171 
					171 192 176 
					174 172 175 
					192 173 190 
					190 173 174 
					176 183 181 
					177 176 185 
					183 176 192 
					179 177 187 
					179 178 177 
					187 177 193 
					194 177 185 
					194 193 177 
					180 189 195 
					180 195 186 
					184 183 196 
					190 196 183 
					183 192 190 
					191 184 196 
					186 194 185 
					195 197 186 
					194 186 197 
					197 187 193 
					187 197 188 
					195 188 197 
					188 195 189 
					196 190 191 
					194 197 193 
				</DataArray>
				<DataArray type="Int32" Name="offsets" format="ascii">
					3 6 9 12 15 18 21 24 27 30 33 36 39 42 45 48 51 54 57 60 63 66 69 72 75 78 81 84 87 90 93 96 99 102 105 108 111 114 117 120 123 126 129 132 135 138 141 144 147 150 153 156 159 162 165 168 171 174 177 180 183 186 189 192 195 198 201 204 207 210 213 216 219 222 225 228 231 234 237 240 243 246 249 252 255 258 261 264 267 270 273 276 279 282 285 288 291 294 297 300 303 306 309 312 315 318 321 324 327 330 333 336 339 342 345 348 351 354 357 360 363 366 369 372 375 378 381 384 387 390 393 396 399 402 405 408 411 414 417 420 423 426 429 432 435 438 441 444 447 450 453 456 459 462 465 468 471 474 477 480 483 486 489 492 495 498 501 504 507 510 513 516 519 522 525 528 531 534 537 540 543 546 549 552 555 558 561 564 567 570 573 576 579 582 585 588 591 594 597 600 603 606 609 612 615 618 621 624 627 630 633 636 639 642 645 648 651 654 657 660 663 666 669 672 675 678 681 684 687 690 693 696 699 702 705 708 711 714 717 720 723 726 729 732 735 738 741 744 747 750 753 756 759 762 765 768 771 774 777 780 783 786 789 792 795 798 801 804 807 810 813 816 819 822 825 828 831 834 837 840 843 846 849 852 855 858 861 864 867 870 873 876 879 882 885 888 891 894 897 900 903 906 909 912 915 918 921 924 927 930 933 936 939 942 945 948 951 954 957 960 963 966 969 972 975 978 981 984 987 990 993 996 999 1002 1005 1008 1011 1014 1017 1020 1023 1026 1029 1032 1035 1038 1041 1044 1047 1050 1053 1056 1059 1062 1065 1068 1071 1074 1077 1080 1083 1086 1089 1092 1095 1098 1101 1104 1107 1110 1113 1116 1119 1122 1125 1128 1131 1134 1137 1140 1143 1146 1149 1152 1155 1158 1161 1164 1167 1170 1173 1176 
				</DataArray>
			</Polys>
		</Piece>
	</PolyData>
</VTKFile>
