<?xml version="1.0"?>
<VTKFile type="PolyData" version="0.1" byte_order="LittleEndian" compressor="vtkZLibDataCompressor">
	<PolyData>
		<Piece NumberOfPoints="1025" NumberOfVerts="0" NumberOfLines="0" NumberOfStrips="0" NumberOfPolys="2046">
		<PointData Normals="Normals">
		<DataArray type="Float32" Name="Normals" NumberOfComponents="3" format="ascii">
			 0.106816  0.358793  0.927285
			 0.212427  0.310411  0.926563
			-0.450672  0.206222  0.868543
			-0.424674  0.337264  0.840182
			 0.694392  0.323598  0.642732
			 0.493798  0.389209  0.777612
			-0.400147  0.188236  0.896911
			-0.059723  0.331164  0.941681
			 0.324109  0.377510  0.867433
			 0.762251  0.342340  0.549342
			 0.676029  0.351301  0.647744
			-0.646433  0.119458  0.753561
			-0.816685  0.075286  0.572152
			 0.269193  0.436930  0.858270
			-0.018592  0.327955  0.944511
			-0.324357  0.236634  0.915858
			-0.751583  0.298248  0.588363
			-0.634646  0.322705  0.702201
			-0.880632  0.152935  0.448440
			 0.924963  0.271952  0.265492
			 0.831967  0.440156  0.337776
			 0.782526  0.361963  0.506593
			-0.181367  0.344392  0.921141
			-0.665474  0.165872  0.727758
			 0.250866  0.474928  0.843511
			 0.937107  0.225486  0.266431
			 0.482039  0.391855  0.783638
			 0.785202  0.234994  0.572919
			-0.758977  0.049966  0.649198
			-0.612240  0.131201  0.779710
			-0.930493 -0.070513  0.359458
			-0.934577 -0.038626  0.353656
			-0.947215 -0.008549  0.320486
			-0.892523 -0.034516  0.449680
			 0.478957  0.409159  0.776653
			-0.437076  0.213082  0.873820
			-0.269867  0.231303  0.934704
			-0.161468  0.232679  0.959056
			 0.452946  0.332093  0.827378
			-0.068875  0.271755  0.959899
			-0.183103  0.226664  0.956607
			-0.421618  0.121782  0.898559
			-0.208315  0.195405  0.958343
			-0.582873  0.050561  0.810989
			-0.349522  0.210185  0.913048
			-0.563276  0.098030  0.820433
			-0.556938  0.237914  0.795749
			-0.756198  0.179168  0.629336
			-0.954872  0.078968  0.286326
			-0.893565  0.111398  0.434893
			-0.989324 -0.017844  0.144634
			-0.979492 -0.025543  0.199856
			 0.975179  0.193611  0.107423
			 0.965356  0.258503  0.035549
			 0.964306  0.261063  0.044281
			 0.942499  0.176553  0.283768
			 0.963489  0.195105  0.183365
			 0.703967  0.256840  0.662166
			-0.663311  0.166350  0.729621
			-0.345815  0.192717  0.918299
			 0.320374  0.226816  0.919736
			-0.729213  0.145727  0.668590
			 0.989631  0.135454  0.047769
			 0.989236  0.115852  0.089388
			 0.908762  0.212859  0.358947
			 0.963399  0.133077  0.232710
			 0.524621  0.139052  0.839903
			 0.793549  0.123842  0.595771
			 0.949189  0.113258  0.293621
			-0.787065  0.036629  0.615781
			-0.531532  0.129615  0.837062
			-0.570512  0.171287  0.803229
			-0.746127  0.075788  0.661477
			-0.671613  0.097419  0.734470
			-0.967838 -0.114155  0.224186
			-0.985673 -0.111643  0.126428
			-0.922757 -0.047964  0.382387
			-0.841110  0.015701  0.540636
			-0.826181  0.040883  0.561919
			-0.874135 -0.006793  0.485636
			-0.381902  0.184733  0.905552
			 0.288328  0.300257  0.909238
			-0.051964  0.226153  0.972705
			-0.524382 -0.002190  0.851480
			-0.399986  0.127700  0.907581
			-0.795301 -0.137597  0.590393
			-0.725189  0.011781  0.688449
			-0.846822  0.015951  0.531637
			-0.970240 -0.024688  0.240884
			-0.986976 -0.099718  0.126233
			-0.989389 -0.131076  0.062680
			 0.983267  0.181384 -0.016916
			 0.985833  0.167730  0.000555
			 0.990699  0.134582  0.020074
			 0.906678  0.176741  0.383011
			 0.932587  0.281066  0.226459
			 0.965097  0.261203  0.018990
			 0.360910  0.209513  0.908762
			 0.542510  0.142616  0.827855
			 0.818492  0.195405  0.540266
			-0.582390  0.144064  0.800042
			-0.101024  0.181875  0.978119
			 0.134624  0.171133  0.976007
			 0.991638  0.115294  0.057981
			 0.995505  0.088797  0.032927
			 0.996747  0.074904  0.029759
			 0.998234  0.057471  0.015024
			 0.287412  0.112172  0.951216
			 0.596029  0.081680  0.798798
			 0.788771  0.027112  0.614089
			 0.956102  0.045803  0.289432
			 0.944911 -0.024625  0.326400
			 0.988443  0.036206  0.147203
			-0.552173  0.131422  0.823306
			-0.625445  0.140139  0.767581
			-0.674333  0.108701  0.730383
			-0.972645 -0.077649  0.218933
			-0.989056 -0.116009  0.091159
			-0.985929 -0.163199  0.036184
			-0.996335 -0.074306  0.042381
			-0.988925 -0.145999  0.026678
			-0.996197 -0.078422  0.037957
			-0.922383  0.006487  0.386222
			-0.786592  0.081664  0.612050
			-0.003938  0.172987  0.984916
			-0.311412  0.075785  0.947248
			-0.234692 -0.340052  0.910650
			-0.324289 -0.153486  0.933423
			-0.572562 -0.102724  0.813401
			-0.844731 -0.099906  0.525783
			-0.951517 -0.185471  0.245388
			-0.849680 -0.415046  0.325241
			-0.713142 -0.353949  0.605102
			-0.998674 -0.028039  0.043174
			-0.980333 -0.088741  0.176271
			-0.990053 -0.125851  0.062904
			-0.987935 -0.144569 -0.055539
			-0.990587 -0.135559  0.018992
			 0.983457  0.169251  0.064544
			 0.969084  0.153279  0.193346
			 0.959238  0.261847  0.106293
			 0.908010  0.173572  0.381300
			 0.936182  0.351346 -0.010935
			 0.942703  0.301650 -0.142539
			 0.983835  0.160784 -0.078854
			 0.810456  0.058673  0.582854
			 0.712650 -0.161729  0.682623
			 0.344552 -0.003893  0.938759
			-0.421299  0.174753  0.889926
			-0.135809  0.149755  0.979352
			 0.991865  0.126733  0.011915
			 0.992213  0.095588 -0.079855
			 0.979256  0.039352 -0.198771
			 0.955571 -0.040330 -0.291990
			 0.979090 -0.066277 -0.192326
			 0.992575 -0.119560  0.022369
			 0.360833  0.057693  0.930844
			-0.026374  0.115775  0.992925
			 0.808918  0.006770  0.587882
			 0.617155 -0.012557  0.786741
			 0.965443 -0.140070  0.219772
			 0.896549 -0.053987  0.439642
			-0.440358  0.151306  0.884981
			-0.448449  0.140022  0.882772
			-0.636945  0.112117  0.762713
			-0.987040 -0.107021  0.119572
			-0.990802 -0.073294  0.113750
			-0.989184 -0.136692 -0.053196
			-0.993467 -0.111248  0.025425
			-0.988624 -0.128210 -0.078640
			-0.967387 -0.108687 -0.228800
			-0.908495  0.049322  0.414975
			-0.975107 -0.007656  0.221602
			-0.840400  0.066065  0.537924
			-0.729610  0.074827  0.679757
			 0.019722 -0.022271  0.999557
			-0.042190 -0.264970  0.963333
			-0.483919 -0.366332  0.794747
			-0.215835 -0.621261  0.753293
			 0.166361 -0.680800  0.713327
			 0.323594 -0.575905  0.750746
			-0.967728 -0.247649  0.046608
			-0.911792 -0.374006  0.169571
			-0.963502 -0.257261  0.074038
			-0.542400 -0.689879  0.479447
			-0.783196 -0.613204  0.102888
			-0.987440 -0.054718  0.148218
			-0.987458  0.048486 -0.150255
			-0.959413 -0.035384 -0.279777
			-0.835839 -0.524682  0.161498
			-0.841245 -0.373404  0.390993
			-0.929825 -0.331363  0.160078
			 0.998600 -0.050490 -0.015790
			 0.954346 -0.285308 -0.088450
			 0.993724  0.100385 -0.049359
			 0.997480 -0.069790  0.012795
			 0.954532 -0.065321  0.290863
			 0.998524  0.039207 -0.037589
			 0.998673 -0.028802 -0.042683
			 0.975654  0.184402 -0.118722
			 0.962487  0.223711 -0.153535
			 0.975388  0.154170 -0.157636
			 0.949621  0.287301 -0.125211
			 0.987811  0.089539 -0.127330
			 0.866007 -0.200239  0.458187
			 0.773954 -0.462277  0.432777
			 0.616808 -0.485258  0.619735
			 0.358061 -0.301201  0.883782
			-0.329789  0.155281  0.931196
			-0.405673  0.143364  0.902705
			 0.990772  0.076197 -0.112095
			 0.989760  0.070188 -0.124290
			 0.975486  0.059398 -0.211895
			 0.948191 -0.023220 -0.316852
			 0.931634 -0.010276 -0.363254
			 0.944536 -0.005424 -0.328362
			 0.907422 -0.022026 -0.419642
			 0.878184 -0.136306 -0.458490
			 0.949911 -0.091493 -0.298828
			 0.983819 -0.122944 -0.130327
			 0.964151 -0.061890 -0.258037
			 0.969689 -0.078414 -0.231416
			 0.983408 -0.179480  0.026361
			 0.984116 -0.156696 -0.083438
			 0.100424  0.086477  0.991179
			 0.412681 -0.017969  0.910698
			 0.170044 -0.002991  0.985432
			-0.205319  0.068533  0.976293
			 0.819138 -0.082136  0.567685
			 0.982815 -0.163042  0.086558
			 0.745740 -0.103504  0.658149
			 0.511199 -0.088282  0.854916
			 0.750001  0.101602  0.653586
			 0.482941  0.126946  0.866402
			-0.480050  0.092801  0.872319
			-0.997991 -0.054391  0.032477
			-0.993850 -0.101774 -0.043632
			-0.975225 -0.152499 -0.160252
			-0.990285 -0.112144 -0.082220
			-0.951947 -0.162443 -0.259632
			-0.853470 -0.226483 -0.469355
			-0.854631 -0.132229 -0.502117
			-0.982831 -0.007313  0.184364
			-0.929365  0.019274  0.368658
			-0.829985  0.055548  0.555013
			-0.687154  0.083440  0.721704
			 0.002199 -0.868833  0.495101
			 0.438027 -0.811565  0.386645
			 0.599033 -0.753059  0.272143
			-0.795878 -0.593584  0.119319
			-0.889513 -0.422884  0.173021
			-0.886051 -0.458113  0.071029
			-0.407185 -0.907175  0.105987
			-0.948511 -0.221647  0.226272
			-0.943784 -0.222099  0.244835
			-0.983578 -0.176303  0.038632
			-0.993506 -0.008646 -0.113446
			-0.989077  0.095149 -0.112575
			-0.910997  0.060447 -0.407959
			-0.788661 -0.549236  0.276322
			-0.864142 -0.361451  0.350159
			-0.656019 -0.461511  0.597199
			-0.673518 -0.464052  0.575352
			 0.971808 -0.226308  0.066132
			 0.911895 -0.406787 -0.054516
			 0.937036 -0.340737 -0.076570
			 0.902670 -0.402407  0.152500
			 0.990480 -0.122684 -0.062437
			 0.937521 -0.345627 -0.039950
			 0.933678  0.314778 -0.170763
			 0.949887  0.276509 -0.145797
			 0.973784  0.220170 -0.057177
			 0.967653  0.198827 -0.155294
			 0.984660 -0.173250  0.020707
			 0.942494  0.116547 -0.313245
			 0.934336  0.181953 -0.306447
			 0.763135 -0.613243  0.203858
			-0.463277  0.090350  0.881596
			 0.940225  0.090586 -0.328285
			 0.947396  0.033853 -0.318267
			 0.933548  0.055419 -0.354143
			 0.885682  0.070262 -0.458945
			 0.877629 -0.163763 -0.450498
			 0.668369 -0.214192 -0.712323
			 0.775152 -0.247945 -0.581088
			 0.965727 -0.073815 -0.248843
			 0.988565 -0.029459 -0.147891
			 0.988947 -0.037008 -0.143574
			 0.974372 -0.140650 -0.175547
			 0.973904 -0.146867 -0.173038
			 0.972535 -0.084000 -0.217071
			 0.070142 -0.022286  0.997288
			-0.078732 -0.025017  0.996582
			-0.504626  0.061871  0.861118
			-0.376992  0.007769  0.926184
			 0.918114 -0.167015  0.359407
			 0.963010 -0.223246 -0.150909
			 0.955589 -0.222465 -0.193283
			 0.938165 -0.266365 -0.221125
			 0.837557 -0.113818  0.534363
			 0.722198 -0.124602  0.680371
			 0.435524 -0.108766  0.893582
			 0.126457 -0.066658  0.989730
			 0.664330 -0.078180  0.743340
			 0.680315 -0.121524  0.722775
			 0.469183  0.065096  0.880699
			-0.254371  0.070682  0.964520
			-0.605926  0.083948  0.791079
			-0.995880 -0.087429 -0.024084
			-0.876572 -0.207890 -0.434053
			-0.871913 -0.230930 -0.431785
			-0.945536 -0.157874 -0.284671
			-0.888226 -0.222287 -0.402048
			-0.794108 -0.283248 -0.537738
			-0.727523 -0.221418 -0.649372
			-0.640993 -0.304953 -0.704366
			-0.686422 -0.116553 -0.717802
			-0.986197 -0.083959  0.142709
			-0.875946  0.017943  0.482076
			-0.951586 -0.005340  0.307336
			-0.548955  0.088317  0.831173
			-0.803776 -0.000570  0.594932
			-0.636016  0.067437  0.768723
			 0.178813 -0.982013  0.060629
			 0.409473 -0.911589 -0.036575
			 0.440637 -0.896597 -0.044200
			 0.466442 -0.884347 -0.019018
			 0.741688 -0.669698  0.037467
			-0.608407 -0.792933  0.033142
			-0.804424 -0.589178  0.075965
			-0.750006 -0.661168  0.018659
			-0.172879 -0.982501 -0.069315
			-0.922873 -0.311351  0.226642
			-0.948041 -0.312841  0.057872
			-0.907382 -0.368337 -0.202449
			-0.933565 -0.269978 -0.235729
			-0.935438 -0.141605 -0.323889
			-0.931726  0.044965 -0.360368
			-0.716637  0.007267 -0.697408
			-0.692530 -0.528099  0.491441
			-0.375668 -0.904249  0.202994
			-0.781391 -0.531716  0.326659
			-0.515469 -0.687198  0.511909
			 0.761770 -0.644995 -0.060726
			 0.875172 -0.477965 -0.074990
			 0.877974 -0.470987  0.085632
			 0.799188 -0.600341 -0.029836
			 0.906142  0.303391 -0.294721
			 0.978979  0.169876 -0.112881
			 0.992229  0.111916 -0.054366
			 0.937938  0.175546 -0.299090
			 0.967340  0.222295 -0.121810
			 0.955875  0.228651 -0.184449
			 0.973475 -0.228794  0.000642
			 0.900217 -0.424013  0.099114
			 0.909380  0.164594 -0.382017
			 0.935211  0.179519 -0.305210
			 0.963302  0.152851 -0.220647
			 0.917794  0.134150 -0.373707
			 0.971698  0.134117 -0.194464
			 0.798180  0.129009 -0.588444
			 0.608011  0.004782 -0.793914
			 0.959454 -0.093062 -0.266059
			 0.866320 -0.199460 -0.457937
			 0.536012 -0.281030 -0.796061
			 0.274172 -0.294025 -0.915630
			 0.165200 -0.192811 -0.967229
			 0.978569 -0.117711 -0.168956
			 0.962568 -0.213790 -0.166603
			 0.924929 -0.207565 -0.318470
			 0.962085 -0.160090 -0.220826
			 0.949287 -0.190938 -0.249795
			 0.963805 -0.154239 -0.217462
			 0.942279 -0.157849 -0.295288
			-0.154338 -0.012343  0.987941
			-0.634651  0.022551  0.772470
			-0.463454 -0.014749  0.885998
			-0.075301 -0.044456  0.996169
			-0.152276 -0.067481  0.986032
			 0.959316 -0.114884  0.257902
			 0.922964 -0.225550 -0.311873
			 0.916145 -0.215227 -0.338165
			 0.978223 -0.134822 -0.157806
			 0.906201 -0.204252 -0.370243
			 0.841297 -0.094678  0.532218
			 0.341545 -0.116489  0.932619
			 0.521993 -0.090113  0.848176
			 0.456478 -0.123483  0.881124
			 0.273895 -0.115286  0.954825
			 0.329925 -0.070360  0.941381
			 0.645529 -0.106686  0.756248
			 0.941297 -0.042186  0.334933
			 0.932096 -0.042153  0.359751
			-0.942433 -0.166227 -0.290152
			-0.991562 -0.122452 -0.042552
			-0.769903 -0.243408 -0.589917
			-0.924016 -0.196200 -0.328178
			-0.970212 -0.131131 -0.203700
			-0.893249 -0.180458 -0.411754
			-0.921531 -0.184224 -0.341823
			-0.824349 -0.245179 -0.510232
			-0.745179 -0.242107 -0.621364
			-0.721408 -0.265787 -0.639474
			-0.582771 -0.266255 -0.767780
			-0.280848 -0.227616 -0.932371
			-0.506591 -0.239039 -0.828387
			-0.391602 -0.260616 -0.882455
			-0.299976 -0.143451 -0.943099
			-0.963002 -0.149859  0.223983
			-0.983198 -0.169554  0.067627
			-0.942272 -0.049575  0.331157
			-0.988777 -0.148973 -0.011243
			-0.947705 -0.095991  0.304370
			-0.896365 -0.026607  0.442517
			-0.824652 -0.072364  0.560993
			-0.879160 -0.180237  0.441126
			-0.922832 -0.076165  0.377597
			-0.744907 -0.003727  0.667158
			 0.225025 -0.974301 -0.010094
			 0.306084 -0.942478 -0.134338
			 0.310463 -0.949746 -0.039952
			 0.545808 -0.834307 -0.077626
			-0.503730 -0.863855  0.003176
			-0.898175 -0.432489  0.078965
			-0.815082 -0.562720 -0.137796
			-0.762502 -0.430992 -0.482532
			-0.776566 -0.330333 -0.536493
			-0.717308 -0.376047 -0.586565
			-0.790819 -0.138634 -0.596142
			-0.636124 -0.089260 -0.766406
			-0.472893 -0.130982 -0.871330
			-0.549665 -0.057837 -0.833381
			-0.553613 -0.052957 -0.831088
			-0.291013 -0.891489  0.347216
			-0.035284 -0.961698  0.271832
			 0.316765 -0.906642  0.278676
			 0.380812 -0.910919  0.158774
			-0.499092 -0.822172  0.273753
			-0.719800 -0.692984  0.040760
			 0.685708 -0.719526  0.109940
			 0.763886 -0.620924  0.175876
			 0.776358 -0.629609  0.029330
			 0.640426 -0.765587  0.061085
			 0.588435 -0.808544  0.000938
			 0.929477  0.173821 -0.325358
			 0.746322  0.161242 -0.645759
			 0.997261 -0.057369 -0.046684
			 0.762986 -0.029935 -0.645721
			 0.931998  0.070214 -0.355597
			 0.849735  0.180904 -0.495201
			 0.955229  0.235315 -0.179345
			 0.855935 -0.510760  0.080628
			 0.917470 -0.397761 -0.005895
			 0.904523  0.118673 -0.409578
			 0.949543  0.166923 -0.265529
			 0.644985 -0.020998 -0.763907
			 0.447270 -0.022948 -0.894104
			 0.228138 -0.038331 -0.972874
			 0.735326 -0.273122 -0.620242
			 0.801079 -0.247881 -0.544820
			-0.070586 -0.316183 -0.946069
			 0.389950 -0.357778 -0.848489
			-0.081985 -0.354654 -0.931396
			-0.115462 -0.272087 -0.955321
			 0.938892 -0.229154 -0.256846
			 0.939867 -0.293601 -0.174496
			 0.966227 -0.212112 -0.146337
			 0.924630 -0.311097 -0.219722
			 0.922669 -0.289044 -0.255215
			 0.946351 -0.223173 -0.233695
			 0.938978 -0.114338 -0.324418
			 0.950014 -0.193912 -0.244685
			 0.940524 -0.185286 -0.284751
			 0.850154 -0.217103 -0.479692
			-0.651250 -0.042187  0.757690
			-0.637492 -0.049663  0.768855
			-0.572333  0.004374  0.820009
			-0.571730 -0.033678  0.819750
			-0.556462 -0.021971  0.830583
			-0.372643 -0.046136  0.926827
			 0.041740  0.041634  0.998261
			-0.200754 -0.031680  0.979129
			 0.966344 -0.175298  0.188280
			 0.941011 -0.227082 -0.250861
			 0.875671 -0.094519  0.473568
			 0.804845 -0.152659  0.573515
			 0.485695 -0.123904  0.865302
			 0.665729 -0.110241  0.738005
			 0.540324 -0.129692  0.831403
			 0.576308 -0.176613  0.797920
			 0.486720 -0.156579  0.859411
			 0.324250 -0.007410  0.945943
			-0.969401 -0.143257 -0.199346
			-0.978765 -0.172615 -0.110564
			-0.839761 -0.282611 -0.463608
			-0.892488 -0.229530 -0.388305
			-0.935567 -0.186269 -0.300030
			-0.701659 -0.253802 -0.665777
			-0.716097 -0.270227 -0.643571
			-0.664456 -0.379602 -0.643740
			-0.625160 -0.340821 -0.702151
			-0.599117 -0.318196 -0.734718
			-0.633930 -0.247308 -0.732784
			 0.013206 -0.178083 -0.983927
			-0.431497 -0.282599 -0.856708
			 0.104106 -0.195318 -0.975199
			-0.318555 -0.086112 -0.943985
			 0.476659 -0.054060 -0.877425
			 0.066244 -0.046387 -0.996725
			-0.966469 -0.199050  0.162224
			-0.934907 -0.248831  0.253045
			-0.955799 -0.277621 -0.096822
			-0.950512 -0.289802  0.111987
			-0.796763 -0.130921  0.589940
			-0.700720 -0.078531  0.709101
			-0.740439 -0.027189  0.671573
			-0.896596 -0.105560  0.430085
			-0.912946 -0.255684  0.318048
			-0.730927 -0.089244  0.676596
			-0.637431 -0.629328 -0.444555
			-0.408713 -0.908687  0.085094
			-0.592288 -0.391176 -0.704398
			-0.563889 -0.450646 -0.692060
			-0.542164 -0.279692 -0.792358
			-0.266154 -0.104656 -0.958232
			-0.224455 -0.162843 -0.960782
			-0.343988 -0.287526 -0.893869
			 0.119468 -0.972180  0.201477
			-0.175107 -0.974692 -0.138969
			 0.564554 -0.801529  0.197053
			 0.433591 -0.895878  0.096961
			 0.582807 -0.770007  0.259663
			 0.662520 -0.748458  0.029634
			 0.734772  0.013612 -0.678178
			 0.991511 -0.086377 -0.097189
			 0.921142 -0.017625 -0.388827
			 0.260165 -0.040253 -0.964725
			 0.425601 -0.026458 -0.904524
			 0.274689 -0.218579 -0.936360
			 0.613766 -0.116718 -0.780812
			 0.786690  0.032656 -0.616484
			 0.482756  0.048295 -0.874422
			 0.844317  0.136248 -0.518233
			 0.631327  0.029652 -0.774950
			 0.736160 -0.674649 -0.054013
			 0.886193 -0.427043 -0.179712
			 0.951750 -0.240681 -0.190381
			 0.732463 -0.609503 -0.303323
			 0.578577 -0.364806 -0.729497
			-0.137117 -0.351054 -0.926261
			 0.013458 -0.351104 -0.936240
			 0.072988 -0.456188 -0.886885
			-0.072895 -0.401628 -0.912897
			-0.161878 -0.376879 -0.912008
			 0.941486 -0.255149 -0.220236
			 0.925981 -0.238241 -0.292918
			 0.950718 -0.305691 -0.051843
			 0.873861 -0.325606 -0.361038
			 0.921176 -0.333756 -0.200106
			 0.927165 -0.304111 -0.218817
			 0.932196 -0.299892 -0.202669
			 0.936444 -0.258935 -0.236695
			 0.937181 -0.267564 -0.223835
			 0.942337 -0.272996 -0.193583
			 0.945818 -0.221147 -0.237743
			 0.861558 -0.314210 -0.398735
			 0.920930 -0.237101 -0.309306
			 0.959270 -0.197025 -0.202441
			 0.742824 -0.350687 -0.570290
			-0.548573 -0.127263  0.826361
			-0.603152 -0.094573  0.792000
			 0.746189 -0.075115  0.661483
			-0.492963 -0.092719  0.865096
			 0.953718 -0.025013  0.299659
			-0.463720  0.002203  0.885979
			-0.243022  0.091750  0.965672
			 0.156487  0.289271  0.944370
			-0.085681  0.329262  0.940343
			 0.760577 -0.166511  0.627532
			 0.847634 -0.272273  0.455395
			 0.772980 -0.238303  0.587974
			 0.955007 -0.283148  0.088250
			 0.653448 -0.154749  0.740985
			 0.676385 -0.189642  0.711716
			 0.547901 -0.012427  0.836451
			 0.218249  0.240104  0.945895
			-0.957842 -0.200865 -0.205407
			-0.814991 -0.319559 -0.483396
			-0.807516 -0.354188 -0.471666
			-0.428105 -0.398300 -0.811223
			-0.415799 -0.451257 -0.789606
			-0.554286 -0.423550 -0.716500
			-0.419604 -0.390894 -0.819228
			 0.354786 -0.331914 -0.874048
			 0.041016 -0.032196 -0.998640
			-0.920244 -0.327793  0.213783
			-0.940966 -0.315565 -0.122482
			-0.900840 -0.375447 -0.218005
			-0.933045 -0.358372  0.031553
			-0.938796 -0.338578 -0.063464
			-0.935851 -0.343582  0.078325
			-0.684597 -0.033171  0.728167
			-0.961861 -0.153039  0.226722
			-0.838280 -0.059680  0.541964
			-0.816141  0.203200  0.540947
			-0.936471  0.129920  0.325796
			-0.954496 -0.255148  0.154394
			-0.662742  0.218051  0.716398
			-0.594079  0.180405  0.783916
			-0.695819  0.074128  0.714381
			-0.717665  0.067477  0.693111
			-0.450939 -0.852929 -0.262993
			-0.352351 -0.624902 -0.696668
			-0.422384 -0.485646 -0.765336
			-0.420975 -0.383344 -0.822087
			-0.267188 -0.322633 -0.908030
			-0.062331 -0.254959 -0.964941
			 0.164439 -0.973682 -0.157810
			-0.304124 -0.669567 -0.677634
			-0.044883 -0.895733 -0.442321
			 0.345722 -0.905028 -0.247793
			 0.404160 -0.838503 -0.365469
			 0.484312 -0.306407 -0.819485
			 0.818554 -0.251152 -0.516617
			-0.098880 -0.265736 -0.958962
			 0.310740 -0.096558 -0.945578
			 0.841334 -0.384306 -0.380086
			 0.637447 -0.490835 -0.593921
			 0.380957 -0.689478 -0.616029
			 0.400835 -0.469258 -0.786847
			-0.114808 -0.490117 -0.864063
			 0.943323 -0.116234 -0.310856
			-0.225500 -0.432184 -0.873136
			 0.760766 -0.292820 -0.579216
			-0.402435 -0.386054 -0.830065
			 0.865498 -0.281164 -0.414560
			 0.964745 -0.182210 -0.189915
			 0.983298 -0.124762 -0.132510
			 0.939591 -0.229372 -0.254082
			 0.951233 -0.191959 -0.241469
			 0.914130 -0.139039 -0.380833
			 0.958172 -0.285795 -0.015111
			 0.957330 -0.288607  0.015012
			 0.883315 -0.292613 -0.366240
			 0.952118 -0.164453 -0.257733
			 0.930076 -0.267786 -0.251494
			 0.937950 -0.256893 -0.232930
			 0.963449 -0.198919 -0.179433
			 0.944871 -0.225032 -0.237865
			 0.935350 -0.236320 -0.263197
			 0.954439 -0.162761 -0.250110
			 0.746797 -0.406002 -0.526741
			 0.828950 -0.341542 -0.442934
			 0.866612 -0.231702 -0.441925
			 0.909249 -0.261021 -0.324245
			 0.402808 -0.134751  0.905311
			-0.677385 -0.008979  0.735574
			-0.609534  0.026159  0.792328
			-0.323671  0.246898  0.913389
			 0.086207  0.593102  0.800499
			 0.057005  0.476222  0.877475
			-0.083354  0.507968  0.857334
			 0.947555 -0.273422  0.165470
			 0.900356 -0.194545  0.389244
			 0.766421 -0.021800  0.641969
			 0.603830  0.307195  0.735541
			 0.415429  0.191171  0.889310
			 0.250798  0.454586  0.854665
			-0.576565 -0.469112 -0.668959
			-0.760734 -0.462743 -0.455141
			-0.188073 -0.426837 -0.884556
			-0.423329 -0.475873 -0.770933
			-0.899051 -0.357498 -0.252790
			-0.942255 -0.311125 -0.123920
			-0.937950 -0.312101 -0.151136
			-0.930548 -0.343698 -0.126302
			-0.956434 -0.243929 -0.160415
			-0.962074 -0.243630 -0.122714
			-0.943663 -0.273992 -0.185550
			-0.969397 -0.238239 -0.059264
			-0.685848  0.186120  0.703543
			-0.896167 -0.419230  0.145364
			-0.970888 -0.239424 -0.007271
			-0.940727  0.299556  0.159056
			-0.968212  0.247685  0.034906
			-0.998218  0.059085  0.008365
			-0.844988  0.359154  0.396237
			-0.572103  0.317681  0.756160
			-0.553863  0.536993  0.636297
			-0.570969  0.341373  0.746632
			-0.542299  0.568641  0.618514
			-0.618016  0.466014  0.633157
			-0.361858 -0.430495 -0.826881
			-0.285350 -0.442549 -0.850132
			-0.006258 -0.831810 -0.555026
			-0.329650 -0.584498 -0.741413
			-0.037822 -0.717634 -0.695393
			 0.195834 -0.732757 -0.651703
			 0.038857 -0.378110 -0.924945
			 0.327074 -0.528806 -0.783190
			-0.311117 -0.441666 -0.841509
			 0.050548 -0.590967 -0.805110
			-0.136261 -0.535722 -0.833327
			 0.674863 -0.408597 -0.614498
			 0.100984 -0.452741 -0.885905
			-0.479375 -0.523259 -0.704557
			 0.963004 -0.130428 -0.235822
			 0.956968 -0.202201 -0.208151
			 0.951651  0.102501 -0.289575
			 0.939125 -0.018338 -0.343085
			 0.905232  0.307166 -0.293604
			 0.971843 -0.202771  0.120016
			 0.997300 -0.072370 -0.012508
			 0.970124 -0.239393  0.039383
			 0.986647  0.060374 -0.151273
			 0.902428 -0.304905 -0.304397
			 0.980904 -0.084439 -0.175208
			 0.988442 -0.096247 -0.117129
			 0.968266 -0.004657 -0.249879
			 0.985520 -0.047617 -0.162734
			 0.911736 -0.013947 -0.410541
			 0.935871  0.039057 -0.350172
			 0.841707 -0.293739 -0.453041
			 0.790797 -0.344468 -0.505947
			 0.673566 -0.283272 -0.682690
			-0.536225  0.258698  0.803454
			-0.296946  0.304057  0.905192
			-0.112649  0.439928  0.890940
			 0.175211  0.836997  0.518399
			 0.067721  0.716019  0.694788
			 0.265979  0.660607  0.702035
			 0.023842  0.654189  0.755956
			 0.964941 -0.225628  0.134092
			 0.922486 -0.040007  0.383952
			 0.776108  0.085378  0.624794
			 0.830582  0.182039  0.526303
			 0.729343  0.329170  0.599755
			 0.623873  0.547400  0.557796
			 0.428849  0.678383  0.596561
			-0.709098 -0.460885 -0.533633
			-0.848658 -0.370458 -0.377546
			-0.838993 -0.290547 -0.460080
			-0.918264 -0.266515 -0.292850
			-0.951323 -0.251915 -0.177548
			-0.950400 -0.240957 -0.196671
			-0.959903 -0.064867 -0.272725
			-0.980625 -0.095776 -0.170884
			-0.929216 -0.078316 -0.361143
			-0.957982 -0.074775 -0.276911
			-0.547336  0.462846  0.697279
			-0.982634 -0.071851 -0.171078
			-0.972948  0.095292 -0.210453
			-0.878480  0.464772 -0.110729
			-0.870490  0.473347  0.134868
			-0.954245  0.257947 -0.151258
			-0.715651  0.518244  0.468259
			-0.720731  0.655216  0.226359
			-0.407863  0.609301  0.680000
			-0.188988  0.898556  0.396081
			-0.500488  0.749952  0.432531
			-0.550733  0.619158  0.559765
			-0.594962  0.665250  0.451068
			-0.567790  0.634959  0.523872
			-0.202680  0.873884  0.441867
			-0.393842  0.782083  0.482943
			-0.249316  0.850896  0.462404
			-0.551887  0.704465  0.446261
			-0.288315 -0.476724 -0.830427
			 0.422347 -0.417428 -0.804597
			 0.745274 -0.384607 -0.544650
			 0.278982 -0.330132 -0.901766
			-0.035781 -0.428809 -0.902686
			-0.736672 -0.381014 -0.558698
			-0.670323 -0.297719 -0.679728
			 0.938630  0.156119 -0.307573
			 0.900165  0.294215 -0.321154
			 0.945018  0.207831 -0.252481
			 0.878504  0.426651 -0.214941
			 0.692013  0.614409 -0.378973
			 0.669230  0.697933 -0.254992
			 0.711584  0.646228 -0.275749
			 0.964923  0.081637  0.249517
			 0.973617  0.187189  0.130497
			 0.949429  0.295475 -0.106200
			 0.976421  0.213727  0.030382
			 0.802410 -0.360811 -0.475345
			 0.870517 -0.171768 -0.461189
			 0.911714  0.053979 -0.407264
			 0.948020  0.004351 -0.318181
			 0.969614  0.040208 -0.241312
			 0.997752  0.011420 -0.066040
			 0.990459  0.049122 -0.128758
			 0.941884  0.126317 -0.311285
			 0.906447  0.122443 -0.404180
			 0.879359  0.245245 -0.408146
			 0.589671 -0.373200 -0.716247
			 0.597274 -0.258854 -0.759117
			 0.613062 -0.199585 -0.764409
			 0.738005 -0.255891 -0.624394
			-0.270935  0.482214  0.833105
			-0.073754  0.570926  0.817682
			 0.460683  0.809745  0.363434
			 0.043853  0.916269  0.398156
			 0.063711  0.983947  0.166703
			-0.013135  0.788364  0.615069
			 0.792481  0.462137  0.398000
			-0.762551 -0.137761 -0.632091
			-0.804442 -0.211820 -0.554982
			-0.841908 -0.266529 -0.469205
			-0.869264 -0.183104 -0.459187
			-0.876945  0.218975 -0.427805
			-0.931782  0.183832 -0.313032
			-0.857398 -0.040246 -0.513078
			-0.767102  0.332875 -0.548405
			-0.289280  0.678008  0.675739
			-0.899158  0.313486 -0.305354
			-0.895285  0.244810 -0.372201
			-0.871310  0.351854 -0.342077
			-0.670515  0.668086 -0.322600
			-0.712200  0.699630 -0.057356
			-0.405469  0.890954  0.204439
			-0.444711  0.894909  0.037016
			-0.407793  0.852176  0.327873
			-0.373821  0.926356 -0.046078
			-0.339504  0.874326  0.346829
			-0.396384  0.765824  0.506353
			-0.188973  0.898578  0.396038
			 0.373500  0.909874  0.180631
			-0.496467  0.773126  0.394711
			-0.416679 -0.356212 -0.836356
			-0.225675 -0.393256 -0.891303
			-0.002245 -0.259015 -0.965871
			 0.108517 -0.200308 -0.973705
			 0.231422 -0.110257 -0.966585
			-0.222401 -0.350352 -0.909830
			-0.525359 -0.211651 -0.824137
			 0.936416  0.240183 -0.255807
			 0.740853  0.570462 -0.354555
			 0.826110  0.439717 -0.352408
			 0.875825  0.379401 -0.298304
			 0.719089  0.634069 -0.284373
			 0.703627  0.637841 -0.313157
			 0.636718  0.771007 -0.011789
			 0.811095  0.584915 -0.000036
			 0.754930  0.605341 -0.252274
			 0.584939  0.735024 -0.342907
			 0.706816  0.677973 -0.201901
			 0.905166  0.406235 -0.125090
			 0.890958  0.423840  0.162955
			 0.834109  0.066701 -0.547552
			 0.679083  0.013779 -0.733932
			 0.693742  0.441871 -0.568747
			 0.971325  0.149706 -0.184705
			 0.934997  0.168543 -0.312048
			 0.644755  0.618203 -0.449574
			 0.485118  0.757309 -0.437200
			 0.804540  0.458559 -0.377412
			 0.340524  0.103632 -0.934507
			-0.041004  0.828795  0.558048
			 0.673075  0.709906  0.207375
			 0.442347  0.890172  0.109193
			-0.021899  0.999494 -0.023054
			 0.072247  0.995834  0.055640
			 0.248634  0.949534  0.191222
			 0.185115  0.973881  0.131487
			-0.090034  0.995909 -0.007738
			 0.685178  0.727399  0.037704
			-0.619106  0.058998 -0.783088
			-0.694075 -0.028543 -0.719337
			-0.698893 -0.114956 -0.705928
			-0.802120  0.039384 -0.595863