<?xml version="1.0"?>
<VTKFile type="PolyData" version="0.1" byte_order="LittleEndian" compressor="vtkZLibDataCompressor">
	<PolyData>
		<Piece NumberOfPoints="2627" NumberOfVerts="0" NumberOfLines="0" NumberOfStrips="0" NumberOfPolys="5250">
		<PointData Normals="Normals">
		<DataArray type="Float32" Name="Normals" NumberOfComponents="3" format="ascii">
			-0.939362  0.060908 -0.337474
			-0.950044  0.011830 -0.311893
			-0.938386  0.068985 -0.338633
			-0.946271 -0.050717 -0.319372
			-0.917254 -0.124337 -0.378400
			-0.907614  0.108426 -0.405562
			-0.975824 -0.068006 -0.207710
			-0.952427  0.058412 -0.299116
			-0.947943 -0.098461 -0.302837
			-0.954964  0.014859 -0.296349
			-0.949367  0.049412 -0.310258
			-0.941238 -0.005191 -0.337703
			-0.917342 -0.065999 -0.392592
			-0.865983 -0.114990 -0.486673
			-0.936294 -0.068934 -0.344385
			-0.929381 -0.027311 -0.368111
			-0.876850 -0.128126 -0.463377
			-0.948560 -0.118635 -0.293531
			-0.979367 -0.119029 -0.163318
			-0.963303 -0.116702 -0.241720
			-0.956975  0.098814 -0.272827
			-0.958239 -0.085756 -0.272807
			-0.994768 -0.005878 -0.101991
			-0.924420  0.183187 -0.334500
			-0.959294 -0.041817 -0.279298
			-0.916639  0.268598 -0.296022
			-0.958016 -0.000156 -0.286714
			-0.960372  0.047817 -0.274590
			-0.911200  0.173054 -0.373855
			-0.874175  0.263062 -0.408187
			-0.898891 -0.155951 -0.409481
			-0.914650 -0.032274 -0.402955
			-0.857735 -0.094412 -0.505348
			-0.904345 -0.226474 -0.361758
			-0.911229 -0.200007 -0.360081
			-0.878205 -0.223724 -0.422734
			-0.929539 -0.176762 -0.323594
			-0.893459 -0.175366 -0.413494
			-0.891385  0.153452 -0.426480
			-0.883907 -0.033490 -0.466463
			-0.964148 -0.127487 -0.232734
			-0.913201 -0.059042 -0.403210
			-0.906061 -0.170934 -0.387086
			-0.954329 -0.223798 -0.197914
			-0.922855 -0.014997 -0.384855
			-0.907001  0.191031 -0.375309
			-0.917240 -0.236677 -0.320398
			-0.963098  0.075837 -0.258245
			-0.889306  0.342907 -0.302571
			-0.804786  0.384694 -0.452028
			-0.957305 -0.042539 -0.285934
			-0.882047  0.331052 -0.335257
			-0.965926  0.029557 -0.257127
			-0.986044  0.068815 -0.151598
			-0.960720  0.059857 -0.270988
			-0.876894  0.201404 -0.436455
			-0.910680  0.057711 -0.409062
			-0.956157  0.101660 -0.274644
			-0.935474 -0.012340 -0.353180
			-0.933539  0.020907 -0.357866
			-0.788228 -0.046063 -0.613657
			-0.916363 -0.014574 -0.400084
			-0.835435 -0.257962 -0.485287
			-0.824797 -0.161525 -0.541867
			-0.846020 -0.152061 -0.511007
			-0.878511 -0.134219 -0.458481
			-0.906509 -0.311690 -0.284766
			-0.917463 -0.134347 -0.374448
			-0.883547 -0.168295 -0.437060
			-0.874618  0.128751 -0.467403
			-0.810531  0.335420 -0.480139
			-0.795685  0.375733 -0.475089
			-0.724161  0.399170 -0.562364
			-0.857139 -0.016714 -0.514814
			-0.835468  0.170319 -0.522480
			-0.969493 -0.133599 -0.205511
			-0.952612 -0.280195 -0.118409
			-0.924385 -0.116944 -0.363093
			-0.907679 -0.060572 -0.415271
			-0.802132  0.108528 -0.587202
			-0.891569 -0.361989 -0.272155
			-0.909682 -0.404542 -0.093940
			-0.909458 -0.266981 -0.318760
			-0.844618  0.076881 -0.529821
			-0.947533 -0.121119 -0.295824
			-0.876468  0.205679 -0.435317
			-0.728816  0.397446 -0.557552
			-0.737992  0.481370 -0.472917
			-0.974359  0.055038 -0.218163
			-0.989088 -0.041386 -0.141392
			-0.947895  0.314163  0.052887
			-0.998714 -0.036083  0.035617
			-0.944001  0.305983 -0.123441
			-0.963781 -0.026021 -0.265423
			-0.932932  0.241390 -0.267151
			-0.862781  0.264955 -0.430590
			-0.839449  0.110193 -0.532149
			-0.890030  0.111970 -0.441937
			-0.883770  0.080683 -0.460913
			-0.896660  0.168359 -0.409457
			-0.915099  0.071921 -0.396763
			-0.962585  0.033436 -0.268909
			-0.986180  0.061213 -0.153957
			-0.970159  0.120999 -0.210119
			-0.953321  0.150656 -0.261691
			-0.953523  0.061600 -0.294957
			-0.782880 -0.314074 -0.537082
			-0.852182 -0.309208 -0.422109
			-0.759335 -0.318863 -0.567218
			-0.852622 -0.161479 -0.496950
			-0.812555 -0.121479 -0.570086
			-0.762513 -0.350111 -0.544055
			-0.775459  0.226705 -0.589295
			-0.774840  0.363484 -0.517207
			-0.530327  0.521640 -0.668315
			-0.661613  0.396638 -0.636354
			-0.722792  0.364657 -0.587024
			-0.722352  0.270212 -0.636548
			-0.735339  0.097812 -0.670604
			-0.951183 -0.266174 -0.156214
			-0.942738 -0.317885 -0.100967
			-0.937751 -0.346635 -0.021621
			-0.899478 -0.318493 -0.299167
			-0.909838 -0.132418 -0.393269
			-0.859841 -0.426637 -0.280454
			-0.846529 -0.505724 -0.166230
			-0.924703 -0.371940  0.081151
			-0.840849 -0.541156 -0.011103
			-0.906118 -0.405546  0.120341
			-0.898962 -0.366009 -0.240634
			-0.958295 -0.131112 -0.253931
			-0.938542 -0.301192 -0.168589
			-0.947169 -0.202470 -0.248751
			-0.835647  0.157024 -0.526343
			-0.831475  0.133058 -0.539393
			-0.876928  0.180958 -0.445254
			-0.811147  0.270202 -0.518682
			-0.805364  0.311202 -0.504521
			-0.969116  0.214119  0.122342
			-0.844403  0.535322  0.020358
			-0.967668 -0.227371 -0.109183
			-0.956857 -0.275816  0.091381
			-0.921710  0.310319 -0.232707
			-0.821500  0.537481 -0.190399
			-0.947354 -0.222111 -0.230624
			-0.904485  0.125140 -0.407735
			-0.908783  0.293117 -0.296979
			-0.828553  0.272473 -0.489140
			-0.830267  0.285799 -0.478513
			-0.643058  0.412227 -0.645403
			-0.777203  0.228865 -0.586154
			-0.752876  0.373679 -0.541795
			-0.781468  0.368897 -0.503212
			-0.740814  0.451334 -0.497486
			-0.714890  0.492704 -0.496161
			-0.882186  0.244861 -0.402233
			-0.973252  0.066735 -0.219835
			-0.982243  0.090369 -0.164412
			-0.953476  0.088966 -0.288042
			-0.942103  0.194188 -0.273373
			-0.926861  0.292256 -0.235615
			-0.941888  0.204730 -0.266331
			-0.983170 -0.077185 -0.165590
			-0.980379  0.082194 -0.179170
			-0.895600 -0.290184 -0.337186
			-0.798515 -0.220091 -0.560298
			-0.811122 -0.275832 -0.515749
			-0.784178 -0.211519 -0.583374
			-0.693858 -0.368003 -0.618978
			-0.857366 -0.311747 -0.409557
			-0.789578 -0.274676 -0.548744
			-0.654930 -0.376135 -0.655430
			-0.815395 -0.289893 -0.501093
			-0.764079  0.054059 -0.642854
			-0.732976  0.074736 -0.676137
			-0.806239 -0.271022 -0.525857
			-0.836020 -0.402002 -0.373451
			-0.790221 -0.379321 -0.481318
			-0.829568  0.258029 -0.495215
			-0.703973  0.350664 -0.617622
			-0.880081  0.146069 -0.451797
			-0.782817  0.193512 -0.591397
			-0.603279  0.424103 -0.675420
			 0.958451  0.160563 -0.235778
			 0.348358  0.424559 -0.835701
			-0.564586  0.455956 -0.688002
			-0.533126  0.414857 -0.737340
			-0.778868  0.182250 -0.600125
			-0.743172  0.259825 -0.616592
			-0.583106  0.285642 -0.760524
			-0.949492 -0.309704 -0.050485
			-0.936337 -0.335455 -0.103646
			-0.853212 -0.372502 -0.365064
			-0.925802 -0.341747 -0.161551
			-0.915530 -0.365234  0.168547
			-0.935181 -0.351475  0.043615
			-0.935692 -0.328485  0.128759
			-0.832990 -0.514592 -0.203281
			-0.743425 -0.658220 -0.118595
			-0.861521 -0.505508  0.047368
			-0.865491 -0.462996  0.191205
			-0.912425 -0.398475  0.093259
			-0.923778 -0.368199  0.105188
			-0.979447 -0.201029 -0.016464
			-0.960543 -0.256091 -0.108515
			-0.904574 -0.424848  0.035348
			-0.823358 -0.549644 -0.141325
			-0.736597  0.320658 -0.595486
			-0.782612  0.326853 -0.529798
			-0.680537  0.417230 -0.602319
			-0.766632  0.415385 -0.489623
			-0.584792  0.608129 -0.536840
			-0.987042 -0.112467 -0.114453
			-0.849681  0.474969 -0.229012
			-0.924875 -0.374281 -0.067229
			-0.906232 -0.384941 -0.174826
			-0.838812  0.275908 -0.469328
			-0.934092 -0.283650 -0.216827
			-0.911427 -0.024850 -0.410711
			-0.897230 -0.299588 -0.324386
			-0.933668 -0.103942 -0.342725
			-0.941561 -0.297981 -0.157071
			-0.838109  0.238295 -0.490702
			-0.909847  0.090351 -0.404987
			-0.853850  0.175303 -0.490111
			-0.916373  0.276055 -0.289920
			-0.824629  0.332509 -0.457630
			-0.857715  0.262014 -0.442350
			-0.885132  0.149569 -0.440648
			-0.955539  0.130247 -0.264540
			-0.303677  0.764670 -0.568384
			-0.547896  0.548531 -0.631604
			-0.401966  0.731341 -0.550966
			-0.599800  0.580493 -0.550697
			-0.457723  0.715110 -0.528306
			-0.517023  0.705449 -0.484798
			-0.419587  0.735143 -0.532458
			-0.370324  0.750675 -0.547126
			-0.671141  0.582352 -0.458733
			-0.770439  0.518253 -0.371265
			-0.924528  0.277205 -0.261545
			-0.968305  0.166334 -0.186328
			-0.915870  0.257838 -0.307737
			-0.888464  0.357196 -0.288172
			-0.983660  0.024925 -0.178302
			-0.939459  0.103161 -0.326764
			-0.990910  0.115631 -0.068751
			-0.998623  0.037453  0.036730
			-0.978652 -0.063598  0.195436
			-0.710925 -0.447729 -0.542332
			-0.810620 -0.203662 -0.549014
			-0.671216 -0.516503 -0.531690
			-0.683158 -0.258268 -0.683076
			-0.749772 -0.011866 -0.661589
			-0.779041 -0.409421 -0.474835
			-0.736445 -0.170414 -0.654681
			-0.843905 -0.253162 -0.473004
			-0.629226  0.372395 -0.682200
			-0.627662  0.269191 -0.730463
			-0.564661  0.028551 -0.824829
			-0.624595  0.395450 -0.673425
			-0.793808 -0.372567 -0.480691
			-0.853247 -0.395267 -0.340196
			-0.824359 -0.191575 -0.532664
			-0.739323 -0.040907 -0.672107
			-0.665056  0.522799 -0.533275
			-0.751171  0.286318 -0.594781
			-0.594673  0.502674 -0.627442
			-0.773393  0.268036 -0.574473
			-0.362041  0.764847 -0.532857
			-0.767261  0.256983 -0.587597
			-0.678523  0.299522 -0.670741
			 0.757579  0.300475 -0.579473
			-0.745804  0.277442 -0.605642
			-0.616035  0.290030 -0.732382
			-0.496657  0.388393 -0.776198
			-0.588858  0.354420 -0.726384
			-0.326096  0.634228 -0.701011
			-0.400286  0.623516 -0.671565
			-0.440105  0.428374 -0.789179
			-0.573832  0.263053 -0.775577
			-0.509362  0.210213 -0.834483
			-0.647888  0.340812 -0.681241
			-0.671812  0.306697 -0.674245
			-0.624721  0.451148 -0.637329
			-0.703960  0.310413 -0.638814
			-0.491544  0.516418 -0.701211
			-0.949604 -0.286254 -0.127712
			-0.909858 -0.414745 -0.012038
			-0.947025 -0.310437  0.082292
			-0.942373 -0.303313 -0.141188
			-0.893070 -0.334040 -0.301402
			-0.890940 -0.421431 -0.169182
			-0.880154 -0.338053 -0.333241
			-0.886302 -0.437832 -0.150904
			-0.882963 -0.455388  0.114008
			-0.678416 -0.728679 -0.093699
			-0.773861 -0.629477  0.069987
			-0.629767 -0.774932 -0.053614
			-0.880927 -0.450581  0.144719
			-0.860760 -0.489880  0.138240
			-0.885894 -0.425536  0.184691
			-0.818451 -0.564469  0.107295
			-0.786065 -0.595637  0.165286
			-0.908627 -0.396170  0.132081
			-0.951913 -0.232502  0.199510
			-0.772284 -0.633397  0.048841
			-0.617322  0.286195 -0.732807
			-0.405864  0.660453 -0.631725
			-0.605654  0.417820 -0.677207
			-0.508094  0.670620 -0.540471
			-0.262451  0.822132 -0.505192
			-0.864914 -0.019027 -0.501559
			-0.859150 -0.180234 -0.478934
			-0.905303 -0.077461 -0.417643
			-0.913986 -0.108559 -0.390953
			-0.953546 -0.231981 -0.192185
			-0.936892 -0.346948  0.043131
			-0.941760 -0.333351  0.044333
			-0.900534  0.026498 -0.433978
			-0.960267 -0.227095 -0.162217
			-0.970307 -0.105746 -0.217537
			-0.951235 -0.302858  0.058555
			-0.891929  0.326286 -0.313050
			-0.910616  0.226259 -0.345810
			-0.837761  0.351202 -0.418108
			-0.970090 -0.002631 -0.242730
			-0.070129  0.882921 -0.464255
			-0.140961  0.868067 -0.476014
			-0.244097  0.847008 -0.472223
			-0.127048  0.837186 -0.531957
			-0.235268  0.819227 -0.522987
			-0.534568  0.727056 -0.430844
			-0.673688  0.586671 -0.449402
			-0.455006  0.739785 -0.495669
			-0.859676  0.417735 -0.294031
			-0.814818  0.412779 -0.407044
			-0.785849  0.449411 -0.424819
			-0.995448  0.084743 -0.043601
			-0.979086 -0.090315 -0.182299
			-0.997551  0.011287 -0.069023
			-0.977171  0.051309  0.206166
			-0.993743  0.082016  0.075820
			-0.988132  0.050421  0.145095
			-0.879591 -0.124724  0.459091
			-0.952469 -0.007441  0.304543
			-0.933465 -0.182555  0.308734
			-0.901363  0.035726  0.431589
			-0.805488 -0.344285 -0.482345
			-0.510482 -0.621125 -0.594652
			-0.421217 -0.672084 -0.608998
			-0.592957 -0.529844 -0.606356
			-0.792673 -0.386875 -0.471167
			-0.749891 -0.026939 -0.661012
			-0.667501 -0.362726 -0.650286
			-0.519155 -0.641562 -0.564691
			-0.766626 -0.378864 -0.518408
			-0.475476 -0.196592 -0.857482
			-0.569306 -0.328168 -0.753788
			-0.490068 -0.085833 -0.867448
			-0.470389  0.440363 -0.764731
			 0.213135  0.546554 -0.809847
			-0.428563  0.598818 -0.676574
			-0.393228  0.278446 -0.876265
			-0.293858  0.060896 -0.953907
			-0.293633 -0.103519 -0.950296
			-0.620063  0.526076 -0.582036
			-0.573987 -0.425272 -0.699773
			-0.610259 -0.489692 -0.622724
			-0.726505 -0.432278 -0.534159
			-0.680364 -0.153265 -0.716669
			-0.714050 -0.026521 -0.699592
			-0.457232  0.703260 -0.544394
			-0.464193  0.462533 -0.755373
			-0.634439  0.503281 -0.586682
			-0.238893  0.776284 -0.583364
			-0.078606  0.892529 -0.444086
			 0.004812  0.897116 -0.441769
			-0.466108  0.636586 -0.614412
			-0.520528  0.495309 -0.695500
			-0.667186  0.249155 -0.701986
			 0.437558  0.399539 -0.805551
			 0.752755  0.440967 -0.488782
			-0.300544  0.557911 -0.773569
			-0.551704  0.287714 -0.782843
			-0.140955  0.563856 -0.813755
			-0.353776  0.381294 -0.854083
			-0.458924  0.187209 -0.868528
			-0.335296  0.502935 -0.796638
			-0.478874  0.190948 -0.856866
			-0.324075  0.611990 -0.721418
			-0.318814  0.723647 -0.612122
			 0.021521  0.834415 -0.550717
			-0.871314 -0.485399  0.072104
			-0.848089 -0.528222 -0.041546
			-0.732354 -0.677516  0.068050
			-0.757192 -0.649197  0.072137
			-0.821711 -0.546276 -0.162401
			-0.858859 -0.492728 -0.139933
			-0.761928 -0.629656 -0.151653
			-0.692000 -0.714852 -0.100611
			-0.838681 -0.308708 -0.448680
			-0.836294 -0.478864 -0.267024
			-0.871313 -0.452742 -0.189311
			-0.789643 -0.606917 -0.090082
			-0.748648 -0.651056 -0.125112
			-0.727932 -0.683202 -0.057881
			-0.756446 -0.639779  0.135910
			-0.675045 -0.729759  0.108473
			-0.642874 -0.749207  0.159380
			-0.621993 -0.783020  0.001928
			-0.839203 -0.525225  0.140986
			-0.729679 -0.681993  0.049540
			-0.882773 -0.455427  0.115319
			-0.674681 -0.715775  0.180199
			-0.811839 -0.557858  0.172371
			-0.742271 -0.640307  0.197585
			-0.718669 -0.694744 -0.029099
			-0.776679 -0.521803  0.352833
			-0.741731 -0.656655  0.136529
			-0.836778 -0.504324  0.213212
			-0.667514 -0.725597  0.167132
			-0.551991 -0.813698  0.182215
			-0.510690 -0.827956  0.231700
			-0.907859 -0.294426  0.298504
			-0.844320 -0.516374  0.143116
			-0.886853 -0.388667  0.249860
			-0.747441 -0.662095  0.054414
			-0.172861  0.850015 -0.497589
			-0.103725  0.849977 -0.516509
			-0.976625 -0.209747  0.047006
			-0.895303 -0.341609  0.285896
			-0.893000 -0.344133  0.290040
			-0.970255 -0.222771  0.094756
			-0.988257 -0.096604  0.118386
			-0.796296  0.439891 -0.415222
			-0.917950  0.302598 -0.256520
			-0.990101  0.140107 -0.008367
			-0.859213  0.480354 -0.176106
			-0.998059 -0.050587  0.036315
			-0.070568  0.858785 -0.507453
			-0.003943  0.840858 -0.541242
			-0.123048  0.816732 -0.563744
			-0.229008  0.813192 -0.535046
			-0.201186  0.742236 -0.639226
			-0.360089  0.768582 -0.528788
			-0.627289  0.583019 -0.516331
			-0.662992  0.622145 -0.416385
			-0.527100  0.671930 -0.520264
			-0.685363  0.602301 -0.409282
			-0.347144  0.785133 -0.512892
			-0.976710 -0.007813  0.214423
			-0.869223  0.110760  0.481854
			-0.906050 -0.000692  0.423170
			-0.858013 -0.015241  0.513402
			-0.827776 -0.277202  0.487797
			-0.774048 -0.144046  0.616522
			-0.687336 -0.267387  0.675332
			-0.782521  0.066981  0.619011
			-0.715194 -0.131959  0.686356
			-0.779308 -0.267851 -0.566511
			-0.465642 -0.712374 -0.525073
			-0.380701 -0.625413 -0.681121
			-0.336361 -0.750125 -0.569363
			-0.452251 -0.531487 -0.716234
			-0.520614 -0.481438 -0.705109
			-0.652256 -0.450655 -0.609485
			-0.650014 -0.373586 -0.661752
			-0.594611 -0.229549 -0.770548
			-0.385305 -0.559202 -0.734053
			-0.190665 -0.307005 -0.932413
			-0.268910 -0.194938 -0.943232
			-0.521029  0.485656 -0.701903
			-0.242589  0.480568 -0.842737
			-0.352316  0.491386 -0.796501
			-0.167500  0.322781 -0.931534
			-0.110743  0.133118 -0.984894
			-0.132417 -0.150899 -0.979640
			-0.023490 -0.294078 -0.955493
			-0.286931 -0.537557 -0.792908
			-0.356301 -0.561650 -0.746726
			-0.490140 -0.408417 -0.770038
			-0.486865 -0.265447 -0.832166
			-0.395386  0.725548 -0.563250
			 0.131765  0.885840 -0.444888
			-0.154751  0.818874 -0.552718
			 0.176014  0.855865 -0.486327
			-0.055645  0.838706 -0.541735
			-0.139620  0.769749 -0.622890
			-0.256265  0.639841 -0.724522
			-0.569651  0.266717 -0.777406
			-0.283927  0.455245 -0.843882
			 0.022503  0.532407 -0.846189
			-0.255190  0.324419 -0.910841
			-0.300210  0.279301 -0.912066
			-0.179734  0.433088 -0.883250
			 0.011763  0.727267 -0.686254
			-0.043657  0.628395 -0.776668
			 0.078677  0.881844 -0.464931
			 0.243999  0.873603 -0.421049
			 0.338106  0.872480 -0.352792
			-0.659809 -0.748789 -0.062990
			-0.438438 -0.896947  0.057081
			-0.548101 -0.820114  0.164313
			-0.563571 -0.814701  0.136567
			-0.500393 -0.863129 -0.067941
			-0.442160 -0.896109  0.038522
			-0.720050 -0.662145 -0.207590
			-0.766853 -0.492973 -0.410991
			-0.762446 -0.344626 -0.547640
			-0.768802 -0.614070 -0.178499
			-0.649012 -0.740150 -0.175958
			-0.758261 -0.646172 -0.086615
			-0.550919 -0.834510 -0.009054
			-0.600265 -0.798319  0.048674
			-0.519505 -0.854138  0.023713
			-0.381583 -0.910584  0.158846
			-0.469766 -0.867253  0.164901
			-0.358847 -0.921034  0.151412
			-0.669238 -0.742981 -0.009955
			-0.713933 -0.673580  0.191283
			-0.536377 -0.807543  0.245303
			-0.273916 -0.927505  0.254369
			-0.475043 -0.861307  0.180233
			-0.659129 -0.736054  0.154186
			-0.612187 -0.788146  0.063665
			-0.566861 -0.787604  0.241554
			-0.731375 -0.555999  0.394913
			-0.604856 -0.631845  0.484687
			-0.645045 -0.586977  0.489260
			-0.640271 -0.701565  0.312826
			-0.192688 -0.952234  0.236899
			-0.378536 -0.906997  0.184574
			-0.241901 -0.950988  0.192626
			-0.829454 -0.324232  0.454841
			-0.833550 -0.381884  0.399199
			-0.762212 -0.623881  0.172642
			-0.797235 -0.498969  0.339774
			-0.958213 -0.124105  0.257734
			-0.918958 -0.188427  0.346427
			-0.636456 -0.311068  0.705805
			-0.827202 -0.419103  0.374285
			-0.760417 -0.403129  0.509168
			-0.702330 -0.398249  0.590026
			-0.771148 -0.279487  0.572029
			-0.913438 -0.096668  0.395330
			-0.867429  0.416207 -0.272649
			-0.840101  0.296366 -0.454310
			-0.517080  0.443289 -0.732204
			-0.615725  0.525655 -0.587001
			-0.931717  0.360375 -0.045093
			-0.974266  0.076550  0.212003
			-0.952262  0.271534  0.139520
			-0.839107  0.493240 -0.229377
			-0.917142  0.393427  0.063768
			-0.885326  0.462301 -0.049752
			-0.867497  0.477676 -0.138833
			 0.126946  0.717029 -0.685386
			 0.091781  0.765893 -0.636384
			 0.006996  0.801142 -0.598433
			 0.606006  0.674270 -0.422038
			-0.322462  0.625070 -0.710848
			-0.255583  0.605688 -0.753538
			-0.262216  0.736556 -0.623480
			-0.367683  0.689147 -0.624408
			-0.409923  0.547377 -0.729618
			-0.103369  0.678085 -0.727678
			-0.126544  0.650520 -0.748873
			-0.427086  0.763908 -0.483779
			-0.298461  0.754446 -0.584578
			-0.466432  0.681268 -0.564194
			 0.757332  0.436334 -0.485860
			 0.518169  0.620612 -0.588508
			 0.784638  0.515726 -0.344049
			-0.727155  0.209375  0.653765
			-0.735266  0.123340  0.666461
			-0.771715 -0.093321  0.629084
			-0.661094 -0.310621  0.682986
			-0.526153 -0.250235  0.812739
			-0.669248 -0.053263  0.741128
			-0.711088 -0.359265 -0.604386
			-0.694159 -0.467968 -0.546945
			-0.484347 -0.561336 -0.671051
			-0.522657 -0.646738 -0.555482
			-0.129714 -0.630362 -0.765388
			-0.299070 -0.480280 -0.824554
			-0.355704 -0.687410 -0.633201
			-0.205266 -0.687731 -0.696341
			-0.187549 -0.694333 -0.694785
			-0.326927 -0.489980 -0.808108
			-0.394398 -0.489622 -0.777637
			-0.458150 -0.432607 -0.776499
			-0.308616 -0.567955 -0.763009
			-0.466835 -0.569399 -0.676646
			-0.286654 -0.441004 -0.850497
			-0.175515 -0.663154 -0.727613
			 0.045553 -0.268581 -0.962179
			 0.089422 -0.339678 -0.936281
			-0.067936 -0.450359 -0.890259
			-0.425829  0.425542 -0.798489
			-0.200349  0.509076 -0.837079
			 0.118730  0.507455 -0.853459
			-0.018022  0.418278 -0.908141
			 0.023524  0.211948 -0.976998
			-0.018908 -0.103283 -0.994472
			 0.063198 -0.332411 -0.941015
			 0.023247 -0.344606 -0.938460
			 0.007584 -0.549782 -0.835274
			-0.117372 -0.519938 -0.846102
			-0.080561 -0.618249 -0.781843
			-0.266546 -0.487050 -0.831706
			 0.324384  0.870058 -0.371178
			 0.313115  0.855508 -0.412390
			 0.112392  0.748017 -0.654093
			 0.193904  0.774131 -0.602597
			 0.229741  0.867583 -0.441042
			-0.063666  0.580958 -0.811440
			-0.177258  0.322309 -0.929890
			 0.066143  0.587206 -0.806731
			-0.261729  0.427233 -0.865430
			-0.324011  0.220862 -0.919911
			-0.016194  0.537015 -0.843417
			 0.099455  0.671815 -0.734012
			 0.266075  0.838644 -0.475269
			 0.402780  0.796848 -0.450334
			 0.459456  0.844082 -0.276452
			 0.407024  0.857094 -0.315786
			-0.228331 -0.964098  0.135570
			-0.248113 -0.958990  0.137031
			-0.320465 -0.932166  0.168429
			-0.238410 -0.966067  0.099372
			-0.614690 -0.750263 -0.243440
			-0.502163 -0.861189 -0.078645
			-0.428393 -0.902455 -0.045318
			-0.640101 -0.625369 -0.446301
			-0.590075 -0.803991 -0.073552
			-0.411394 -0.911272 -0.018378
			-0.312330 -0.938199  0.149105
			-0.300984 -0.950413  0.078259
			-0.354458 -0.932330  0.071555
			-0.130019 -0.979901  0.151291
			-0.048854 -0.985814  0.160575
			-0.693083 -0.659555  0.290900
			-0.249630 -0.897715  0.363034
			-0.388087 -0.842125  0.374451
			 0.026491 -0.964963  0.261043
			-0.624404 -0.737426  0.257533
			-0.652915 -0.558761  0.511359
			-0.631996 -0.564651  0.530802
			-0.487290 -0.859265  0.155604
			-0.378368 -0.863374  0.333802
			-0.523940 -0.724981  0.447091
			-0.619924 -0.584461  0.523546
			-0.366368 -0.781499  0.505009
			-0.577065 -0.568456  0.586390
			-0.438328 -0.678186  0.589858
			-0.440480 -0.677085  0.589520
			 0.061581 -0.964577  0.256513
			-0.703559 -0.295296  0.646378
			-0.713173 -0.334753  0.615893
			-0.722550 -0.409277  0.557148
			-0.715158 -0.497038  0.491430
			-0.838208 -0.199231  0.507656
			-0.904118 -0.054815  0.423753
			-0.736464 -0.179471  0.652235
			-0.183368 -0.377446  0.907695
			-0.535331 -0.391938  0.748202
			-0.348253 -0.419172  0.838460
			-0.195454 -0.297082  0.934634
			-0.440882 -0.163934  0.882467
			-0.436051 -0.399554  0.806360
			-0.865627 -0.283372  0.412783
			-0.559108 -0.430227  0.708733
			-0.375026 -0.472320  0.797665
			-0.932298  0.270856 -0.239704
			-0.905365  0.384862 -0.179431
			-0.682897  0.362598 -0.634172
			-0.888884  0.226678 -0.398123
			-0.553188  0.399871 -0.730812
			 0.489943  0.446667 -0.748628
			-0.910911  0.084177  0.403924
			-0.916185  0.280733  0.285995
			-0.910812  0.384960  0.149089
			-0.907525  0.300366  0.293563
			-0.885783  0.440150 -0.147158
			-0.930891  0.359095 -0.067034
			 0.734868  0.507639 -0.449746
			 0.570585  0.546753 -0.612775
			 0.060508  0.689594 -0.721664
			 0.594609  0.633153 -0.495537
			-0.268952  0.492438 -0.827750
			-0.119248  0.565916 -0.815794
			-0.308584  0.722106 -0.619144
			-0.435274  0.609574 -0.662538
			-0.439769  0.517352 -0.734132
			-0.520975  0.431740 -0.736332
			-0.328545  0.517148 -0.790326
			-0.317959  0.457290 -0.830534
			-0.003123  0.636351 -0.771393
			-0.566954  0.359727  0.741053
			-0.627175  0.168001  0.760544
			-0.505210  0.415796  0.756225
			-0.569275  0.226384  0.790365
			-0.486293  0.013844  0.873686
			-0.588266 -0.266482  0.763499
			-0.478435 -0.082937  0.874197
			-0.511697 -0.204426  0.834492
			-0.409020 -0.143491  0.901173
			-0.496958 -0.699425 -0.513652
			-0.437624 -0.810173 -0.390007
			-0.197941 -0.675257 -0.710526
			-0.418424 -0.738062 -0.529327
			-0.189399 -0.825657 -0.531431
			-0.120311 -0.596945 -0.793210
			-0.069134 -0.609847 -0.789498
			-0.197188 -0.643050 -0.740003
			-0.199869 -0.494551 -0.845856
			-0.240830 -0.546175 -0.802305
			-0.248458 -0.441987 -0.861926
			-0.056303 -0.789218 -0.611527
			-0.167363 -0.796557 -0.580935
			 0.120819 -0.801123 -0.586178
			 0.001997 -0.809431 -0.587211
			-0.199471 -0.568275 -0.798295
			-0.118502 -0.626630 -0.770254
			-0.161986 -0.607706 -0.777466
			 0.124315 -0.771446 -0.624033
			-0.015175 -0.789690 -0.613318
			-0.155873 -0.838804 -0.521642
			 0.250859 -0.351565 -0.901927
			 0.069739 -0.420960 -0.904394
			 0.020333  0.491453 -0.870667
			 0.140109  0.469565 -0.871710
			 0.466897  0.428125 -0.773768
			 0.197911  0.375834 -0.905307
			 0.198951  0.646827 -0.736229
			 0.102061  0.354463 -0.929483
			 0.041886 -0.037091 -0.998434
			 0.102578 -0.207168 -0.972913
			 0.089824 -0.375904 -0.922295
			 0.147754 -0.408129 -0.900888
			-0.075916 -0.479013 -0.874519
			-0.084825 -0.458610 -0.884580
			-0.024034 -0.489379 -0.871740
			 0.290262  0.718962 -0.631540
			 0.308740  0.670725 -0.674395
			 0.182579  0.655873 -0.732458
			 0.398347  0.863924 -0.308147
			 0.060032  0.562043 -0.824926
			-0.232655  0.210316 -0.949547
			-0.065009  0.133176 -0.988958
			 0.249505  0.474916 -0.843921
			-0.186211  0.529255 -0.827777
			-0.062976  0.692116 -0.719034
			-0.204972  0.274804 -0.939398
			 0.291265  0.863145 -0.412487
			 0.492507  0.820666 -0.289731
			 0.403447  0.663859 -0.629699
			 0.471435  0.782280 -0.407169
			 0.451090  0.707257 -0.544340
			 0.455295  0.861511 -0.224736
			-0.051127 -0.989332  0.136412
			-0.076293 -0.984222  0.159647
			-0.420480 -0.882697 -0.209863
			-0.302746 -0.952899 -0.018098
			-0.127334 -0.985018  0.116299
			-0.356445 -0.928813  0.101261
			-0.195822 -0.975928  0.096016
			-0.063398 -0.979771  0.189813
			 0.146557 -0.977142  0.153994
			-0.625447 -0.425864  0.653801
			-0.051596 -0.940358  0.336250
			 0.019804 -0.923094  0.384065
			-0.578794 -0.735216  0.352783
			-0.633864 -0.348815  0.690322
			-0.419640 -0.287670  0.860900
			-0.438868 -0.464395  0.769241
			-0.371346 -0.768969  0.520374
			-0.374396 -0.885656  0.274665
			-0.386080 -0.587484  0.711200
			-0.172109 -0.860193  0.480049
			-0.244978 -0.800909  0.546380
			-0.405483 -0.565475  0.718207
			-0.178165 -0.825747  0.535164
			 0.072325 -0.970401  0.230416
			 0.048938 -0.939870  0.338008
			-0.612828 -0.320315  0.722385
			-0.750612 -0.146848  0.644218
			-0.593132 -0.375356  0.712252
			 0.322027 -0.306748  0.895659
			 0.265485 -0.373929  0.888648
			 0.106314 -0.274202  0.955777
			 0.059898 -0.389908  0.918904
			-0.220035 -0.387983  0.895016
			-0.085059 -0.131332  0.987683
			-0.304292 -0.137174  0.942650
			-0.423856 -0.546319  0.722414
			-0.095188 -0.583084  0.806816
			-0.249046 -0.663674  0.705345
			-0.972475  0.127190 -0.195230
			 0.900468  0.307815 -0.307257
			 0.154799  0.623580 -0.766280
			-0.969702  0.155213 -0.188644
			-0.955473  0.255772 -0.147145
			-0.914275  0.359613 -0.186492
			-0.509808  0.471340 -0.719677
			-0.693082  0.465192 -0.550666
			-0.966615  0.152521 -0.205894
			-0.863394  0.338437 -0.374180
			-0.834511  0.112415  0.539402
			-0.904243  0.278200  0.323960
			-0.969129  0.246130  0.014440
			-0.978781  0.148953 -0.140717
			-0.960351  0.173058 -0.218578
			 0.954029  0.227016 -0.195685
			 0.149201  0.510506 -0.846831
			 0.128225  0.683680 -0.718429
			 0.366262  0.655251 -0.660680
			 0.223732  0.568190 -0.791899
			 0.121255  0.619517 -0.775562
			-0.239628  0.442860 -0.863975
			-0.127503  0.486168 -0.864513
			-0.178074  0.583676 -0.792220
			-0.051598  0.600057 -0.798292
			-0.072266  0.529502 -0.845225
			-0.077188  0.576934 -0.813136
			-0.381332  0.501760 -0.776416
			-0.495905  0.611081 -0.616976
			-0.469383  0.707120 -0.528830
			-0.485628  0.598630 -0.637030
			-0.298248  0.540510 -0.786700
			-0.195034  0.475916 -0.857593
			 0.033309  0.489922 -0.871130
			-0.367126  0.513838  0.775363
			-0.423882  0.331737  0.842778
			-0.403486  0.335761  0.851154
			-0.412576  0.123989  0.902445
			-0.290156  0.507827  0.811124
			-0.236819  0.168713  0.956793
			-0.461449 -0.234782  0.855536
			-0.263336  0.113993  0.957946
			-0.376379 -0.053039  0.924946
			-0.446235 -0.219621  0.867549
			-0.425840 -0.182212  0.886261
			-0.127013 -0.949613 -0.286536
			-0.259831 -0.944909 -0.199085
			 0.239816 -0.835053 -0.495151
			 0.045099 -0.676507 -0.735054
			 0.073578 -0.854780 -0.513749
			-0.008381 -0.609247 -0.792937
			 0.217198 -0.858470 -0.464602
			 0.174995 -0.855386 -0.487536
			 0.244110 -0.591690 -0.768319
			 0.382723 -0.678043 -0.627520
			 0.441030 -0.792045 -0.422086
			 0.321433 -0.865514 -0.384144
			 0.246706 -0.767071 -0.592231
			 0.221175 -0.769651 -0.598931
			 0.458912 -0.798194 -0.390238
			 0.414542 -0.820070 -0.394513
			 0.225380 -0.884697 -0.408063
			 0.136906 -0.939462 -0.314115
			 0.128413 -0.282565 -0.950614
			 0.159484 -0.343554 -0.925492
			-0.007456 -0.448642 -0.893680
			 0.423258  0.352296 -0.834710
			 0.425855  0.758194 -0.493750
			 0.602715  0.080621 -0.793873
			 0.737016  0.388929 -0.552758
			 0.040702  0.917062 -0.396663
			 0.028058  0.592263 -0.805256