<?xml version="1.0"?>
<VTKFile type="PolyData" version="0.1" byte_order="LittleEndian" compressor="vtkZLibDataCompressor">
	<PolyData>
		<Piece NumberOfPoints="210" NumberOfVerts="0" NumberOfLines="0" NumberOfStrips="0" NumberOfPolys="390">
		<PointData Normals="Normals">
		<DataArray type="Float32" Name="Normals" NumberOfComponents="3" format="ascii">
			 0.060202  0.998043 -0.016895
			-0.051177  0.992543 -0.110631
			 0.053924  0.993245  0.102743
			 0.055063  0.978804 -0.197260
			 0.481168  0.715119  0.507033
			 0.987022  0.152937  0.048962
			 0.005781  0.987584  0.156987
			-0.089801  0.993840 -0.064940
			-0.050248  0.990928 -0.124645
			-0.443109  0.740982 -0.504579
			-0.030853  0.968484 -0.247157
			-0.041337  0.480064  0.876259
			 0.594470  0.570190 -0.567000
			 0.671520  0.564937 -0.479487
			 0.366972  0.853617 -0.369689
			 0.733427 -0.331513  0.593450
			-0.105157 -0.082003  0.991069
			 0.986564 -0.145174  0.074935
			-0.632029  0.494701  0.596498
			-0.816818  0.572406 -0.071838
			-0.087953  0.349299 -0.932874
			-0.781602 -0.268309 -0.563123
			-0.200771 -0.370805 -0.906749
			-0.699153 -0.329463  0.634538
			 0.809957 -0.201127 -0.550924
			 0.626755  0.077854  0.775317
			-0.303427 -0.059545  0.950992
			-0.862233 -0.113253  0.493689
			 0.856653  0.280665  0.432865
			 0.993238 -0.011245 -0.115553
			-0.920368 -0.375711  0.108462
			-0.643642 -0.277698 -0.713168
			-0.015622 -0.289452 -0.957065
			 0.653322 -0.341356 -0.675756
			-0.948388 -0.254301 -0.189449
			 0.510327  0.245189  0.824287
			-0.356989  0.166228  0.919199
			-0.909912 -0.020284  0.414306
			-0.950518 -0.172295 -0.258515
			 0.791701  0.255156  0.555072
			 0.894724 -0.018610 -0.446232
			-0.640983 -0.219224 -0.735582
			-0.016817 -0.163293 -0.986434
			 0.661895 -0.056367 -0.747475
			 0.510542  0.295781  0.807379
			-0.344015  0.289645  0.893174
			-0.955612  0.088678  0.280967
			-0.880134 -0.097053 -0.464699
			-0.464214 -0.164246 -0.870361
			 0.726011  0.264973  0.634585
			 0.952550  0.212944 -0.217494
			 0.305379 -0.040840 -0.951355
			 0.899985  0.111195 -0.421500
			 0.604739  0.248530  0.756653
			-0.163640  0.320188  0.933114
			-0.945328  0.107961  0.307734
			-0.886416 -0.128911 -0.444576
			-0.501326 -0.241888 -0.830760
			 0.317517 -0.315202 -0.894332
			 0.800526  0.115398  0.588083
			 0.999638  0.025716 -0.007850
			 0.926341 -0.117886 -0.357765
			 0.660897  0.182731  0.727891
			-0.072003  0.282347  0.956606
			-0.904852  0.095357  0.414909
			-0.895242 -0.168400 -0.412533
			-0.513163 -0.329915 -0.792351
			 0.303561 -0.332767 -0.892814
			 0.966542 -0.256290  0.010592
			 0.806688  0.022515  0.590548
			-0.093309  0.327854  0.940109
			-0.891709  0.127495  0.434282
			-0.936599 -0.119561 -0.329375
			-0.457981 -0.312063 -0.832389
			 0.323871 -0.419417 -0.848055
			 0.970797 -0.169571 -0.169700
			 0.946373 -0.100517  0.307040
			 0.723364  0.258100  0.640413
			-0.127725  0.305672  0.943531
			-0.818332  0.189056  0.542762
			-0.980883 -0.074839 -0.179633
			-0.556928 -0.255423 -0.790310
			 0.424456 -0.322945 -0.845898
			 0.833127 -0.302059 -0.463314
			 0.997376 -0.027290 -0.067049
			 0.914353  0.195042  0.354848
			 0.605554  0.285032  0.743008
			-0.281556  0.374021  0.883648
			-0.780416  0.234418  0.579654
			-0.990529  0.059242  0.123862
			-0.793046 -0.197057 -0.576409
			 0.434477 -0.274701 -0.857770
			 0.885116 -0.212569 -0.413986
			 0.997203 -0.072858 -0.016697
			 0.590978  0.228534  0.773639
			-0.221064  0.325024  0.919505
			-0.874404  0.225026  0.429862
			-0.998154  0.047251 -0.038161
			-0.877285 -0.153027 -0.454923
			 0.311432 -0.290918 -0.904642
			 0.960311 -0.096282 -0.261788
			 0.907359 -0.187677 -0.376134
			 0.911714  0.094135  0.399895
			 0.546602  0.211854  0.810150
			-0.284921  0.238639  0.928370
			-0.848866  0.121835  0.514377
			-0.972144 -0.040424 -0.230870
			-0.746977 -0.173346 -0.641854
			 0.237027 -0.277014 -0.931172
			 0.987944 -0.055936 -0.144352
			 0.995897 -0.057338 -0.070017
			 0.839885  0.118072  0.529766
			-0.137086  0.190970  0.971976
			-0.824424  0.064354  0.562302
			-0.956062 -0.106961 -0.272958
			-0.602896 -0.181409 -0.776921
			 0.350119 -0.188958 -0.917448
			 0.998354  0.052989 -0.021927
			 0.998541  0.045952  0.028347
			 0.856105  0.147314  0.495361
			-0.022041  0.169307  0.985317
			-0.720360  0.079006  0.689086
			-0.967896 -0.097762 -0.231558
			-0.565910 -0.132555 -0.813741
			 0.356811 -0.098567 -0.928962
			 0.957144  0.011857 -0.289369
			 0.995837  0.090885  0.006999
			 0.983476  0.109668  0.144039
			 0.882538  0.121683  0.454225
			 0.005213  0.193534  0.981080
			-0.666211  0.116053  0.736678
			-0.993632  0.000365  0.112671
			-0.751537 -0.071994 -0.655751
			 0.056994 -0.043834 -0.997412
			 0.949857  0.039296 -0.310205
			 0.993192  0.045516 -0.107232
			 0.996253  0.050216  0.070411
			 0.965328  0.162324  0.204433
			 0.492737  0.303479  0.815543
			-0.575821  0.160457  0.801675
			-0.898244  0.092249  0.429706
			-0.963021  0.041006 -0.266286
			-0.622156  0.047545 -0.781448
			 0.537707  0.115924 -0.835124
			 0.980342  0.141930 -0.137061
			 0.990059  0.135550  0.037530
			 0.962474  0.267888  0.043362
			 0.923123  0.380588  0.054741
			 0.518518  0.581014  0.627345
			-0.350930  0.389753  0.851434
			-0.829818  0.241231  0.503200
			-0.988945  0.135066 -0.061190
			-0.901514  0.146928 -0.407044
			-0.373351  0.226163 -0.899700
			 0.745889  0.354473 -0.563913
			 0.916719  0.397827 -0.036885
			 0.874673  0.484707  0.002547
			 0.845144  0.526468 -0.092533
			 0.532103  0.585382  0.611715
			-0.609831  0.287454  0.738564
			-0.822678  0.044484  0.566765
			-0.984541  0.045021  0.169271
			-0.965312  0.020680 -0.260279
			-0.661560  0.152795 -0.734160
			 0.264713  0.277108 -0.923655
			 0.788030  0.581722 -0.201516
			 0.797394  0.598227  0.079291
			 0.970352  0.142762  0.195025
			 0.997760 -0.030268  0.059658
			 0.829289 -0.040197  0.557373
			-0.046483  0.047377  0.997795
			-0.747084 -0.171437  0.642242
			-0.840517 -0.454433  0.294996
			-0.848460 -0.527029 -0.048547
			-0.949502 -0.306553 -0.066866
			-0.659482 -0.295668 -0.691132
			-0.022874 -0.065835 -0.997568
			 0.308893  0.251941 -0.917121
			 0.957776  0.212613 -0.193550
			 0.598061 -0.800111  0.046320
			 0.780728 -0.624508  0.021290
			 0.718689 -0.456402  0.524580
			 0.978284  0.158487  0.133576
			 0.822273 -0.553187  0.133607
			 0.690736 -0.605407  0.395430
			-0.347135 -0.665794  0.660467
			-0.442941 -0.896498  0.009671
			-0.300259 -0.934812 -0.189662
			-0.260250 -0.964653 -0.041419
			-0.483587 -0.871682  0.079462
			-0.626413 -0.779446  0.008369
			-0.021450 -0.633496 -0.773449
			-0.074237 -0.350210 -0.933725
			 0.326530 -0.499223 -0.802593
			 0.685905 -0.622405 -0.377023
			-0.089528 -0.994425 -0.055714
			 0.123754 -0.963265 -0.238338
			-0.213931  0.957476  0.193582
			-0.162495 -0.953055 -0.255504
			 0.022845 -0.874023 -0.485347
			 0.285059 -0.676446 -0.679089
			 0.124552 -0.715699 -0.687213
			 0.166672 -0.833996 -0.525996
			 0.451381 -0.862575 -0.228518
			 0.548977 -0.833441 -0.063251
			 0.379475 -0.906325  0.185939
			 0.600226 -0.799769 -0.009954
			 0.486931 -0.865428 -0.118035
			 0.098069 -0.995179  0.001243
			-0.094323 -0.993785  0.059112
		</DataArray>
	</PointData>
	<Points>
		<DataArray type="Float32" NumberOfComponents="3" format="ascii">
			 0.008096 -0.009369  0.019110
			 0.000955 -0.011373  0.019740
			 0.006182 -0.008881  0.025016
			 0.004693 -0.010091  0.014657
			 0.007914 -0.009542  0.026948
			 0.010064 -0.010349  0.019272
			-0.000222 -0.008743  0.027596
			-0.005568 -0.008950  0.026491
			-0.008276 -0.009839  0.020980
			-0.007741 -0.010354  0.016291
			-0.001223 -0.010719  0.013293
			-0.002188 -0.010099  0.029951
			 0.006581 -0.011095  0.012993
			 0.010162 -0.010450  0.019258
			 0.007942 -0.009454  0.019354
			 0.008301 -0.014279  0.028011
			 0.001697 -0.013975  0.030110
			 0.003788 -0.016376  0.019176
			-0.007705 -0.009561  0.028012
			-0.010817 -0.010417  0.021559
			-0.002049 -0.011989  0.010891
			-0.008882 -0.015931  0.016917
			-0.001673 -0.018030  0.011945
			-0.007445 -0.014070  0.026525
			 0.007081 -0.018028  0.014184
			 0.004033 -0.021691  0.026969
			-0.002083 -0.021089  0.027509
			-0.005484 -0.022412  0.024532
			 0.006769 -0.023208  0.022087
			 0.006688 -0.022602  0.022165
			-0.009532 -0.014587  0.020549
			-0.003829 -0.023350  0.016458
			 0.000063 -0.023390  0.015532
			 0.004848 -0.022838  0.017347
			-0.005979 -0.022168  0.019292
			 0.004532 -0.030890  0.028727
			-0.001275 -0.030518  0.028807
			-0.004466 -0.030839  0.025818
			-0.004909 -0.032178  0.020882
			 0.007841 -0.032684  0.024152
			 0.007511 -0.032561  0.024521
			-0.003286 -0.033035  0.018444
			-0.001181 -0.033201  0.017291
			 0.004067 -0.032695  0.018396
			 0.004717 -0.036695  0.030317
			-0.000498 -0.036094  0.030768
			-0.004768 -0.036537  0.026070
			-0.003747 -0.038322  0.020341
			-0.000178 -0.039866  0.017948
			 0.009237 -0.039221  0.026662
			 0.009216 -0.039228  0.026565
			 0.004661 -0.040691  0.017182
			 0.009142 -0.039748  0.023338
			 0.006866 -0.044846  0.031139
			 0.000692 -0.043300  0.033778
			-0.005162 -0.045168  0.028900
			-0.004186 -0.046467  0.022942
			-0.001016 -0.047644  0.020096
			 0.004605 -0.049308  0.018709
			 0.009484 -0.045939  0.028097
			 0.009265 -0.045545  0.028014
			 0.009356 -0.047975  0.024678
			 0.006018 -0.049796  0.033607
			 0.001720 -0.048792  0.035475
			-0.004834 -0.049395  0.031581
			-0.003904 -0.051974  0.024491
			-0.001460 -0.052225  0.022043
			 0.004127 -0.052634  0.019962
			 0.009552 -0.051547  0.028162
			 0.005772 -0.055910  0.035105
			 0.001262 -0.054678  0.037412
			-0.004638 -0.055661  0.032278
			-0.004659 -0.057660  0.027912
			-0.001500 -0.058173  0.024510
			 0.005591 -0.059117  0.023274
			 0.007746 -0.057040  0.025645
			 0.004455 -0.057584  0.029291
			 0.005185 -0.067907  0.040052
			 0.000334 -0.066720  0.041718
			-0.004230 -0.067463  0.038537
			-0.004712 -0.069314  0.033439
			-0.001615 -0.071911  0.028862
			 0.002443 -0.071898  0.028716
			 0.005923 -0.071183  0.033051
			 0.007506 -0.070563  0.036156
			 0.007520 -0.070491  0.035738
			 0.004819 -0.080897  0.045123
			-0.000565 -0.081285  0.045781
			-0.004115 -0.082157  0.042086
			-0.004813 -0.081921  0.041194
			-0.002807 -0.083477  0.034318
			 0.002034 -0.084932  0.031648
			 0.004085 -0.083793  0.036462
			 0.006574 -0.083491  0.041446
			 0.003913 -0.096201  0.051596
			-0.001111 -0.096237  0.052972
			-0.005458 -0.097075  0.049855
			-0.005557 -0.097504  0.047958
			-0.004691 -0.099174  0.042459
			 0.002176 -0.102151  0.036390
			 0.003213 -0.098918  0.042607
			 0.005443 -0.097353  0.047764
			 0.005933 -0.097557  0.047674
			 0.002676 -0.123311  0.059874
			-0.003064 -0.123215  0.058832
			-0.007174 -0.124140  0.055874
			-0.007496 -0.124812  0.054862
			-0.002419 -0.126284  0.048967
			 0.001874 -0.127019  0.045135
			 0.003798 -0.125322  0.049323
			 0.004851 -0.124330  0.054256
			 0.004018 -0.147496  0.065251
			 0.001201 -0.147366  0.065942
			-0.005863 -0.148473  0.063522
			-0.005792 -0.149575  0.059075
			-0.001906 -0.150710  0.053820
			 0.003181 -0.150151  0.051267
			 0.004003 -0.148685  0.055090
			 0.001652 -0.148565  0.059576
			 0.006468 -0.174109  0.068715
			 0.003272 -0.174106  0.070521
			-0.002233 -0.176595  0.068275
			-0.003973 -0.175698  0.062435
			 0.000135 -0.175760  0.058186
			 0.003907 -0.175407  0.057156
			 0.005668 -0.175394  0.060162
			 0.006369 -0.174467  0.063433
			 0.007658 -0.174905  0.062780
			 0.007345 -0.191813  0.070671
			 0.002653 -0.191941  0.073623
			-0.001391 -0.192313  0.071433
			-0.003340 -0.191155  0.067976
			 0.001110 -0.193465  0.060121
			 0.004982 -0.193010  0.057628
			 0.006901 -0.192578  0.060879
			 0.007177 -0.192528  0.066043
			 0.007814 -0.192581  0.065194
			 0.008759 -0.215637  0.073959
			 0.005371 -0.215071  0.079660
			 0.000980 -0.214591  0.076768
			-0.001837 -0.215421  0.073632
			-0.003389 -0.217858  0.067367
			 0.000694 -0.218692  0.060615
			 0.006858 -0.217912  0.059764
			 0.008697 -0.216818  0.069852
			 0.009096 -0.216684  0.068836
			 0.011617 -0.228543  0.069630
			 0.010606 -0.226792  0.077818
			 0.010200 -0.224668  0.082574
			 0.003916 -0.224753  0.081865
			-0.002496 -0.227404  0.075827
			-0.004501 -0.228926  0.069800
			-0.001351 -0.229002  0.062476
			 0.000622 -0.228342  0.058733
			 0.009619 -0.227189  0.058690
			 0.011074 -0.227991  0.070424
			 0.012870 -0.231426  0.069870
			 0.013017 -0.231522  0.077325
			 0.013565 -0.229719  0.084667
			 0.002644 -0.231711  0.085791
			-0.000291 -0.232444  0.081136
			-0.005607 -0.233464  0.073934
			-0.004147 -0.233769  0.067805
			-0.001383 -0.234768  0.057245
			 0.010866 -0.232271  0.057546
			 0.013113 -0.231635  0.063787
			 0.012568 -0.231461  0.070859
			 0.017104 -0.237155  0.072234
			 0.016575 -0.236175  0.079349
			 0.015204 -0.234274  0.085349
			 0.006097 -0.235768  0.089231
			 0.001485 -0.238022  0.082988
			-0.003824 -0.240139  0.075859
			-0.004003 -0.240190  0.070675
			-0.002308 -0.240312  0.061307
			-0.001833 -0.240014  0.056780
			 0.005939 -0.237772  0.058151
			 0.013964 -0.237936  0.055024
			 0.019693 -0.237643  0.060345
			 0.013947 -0.241700  0.071988
			 0.018100 -0.241747  0.066499
			 0.013988 -0.241687  0.072183
			 0.013975 -0.242332  0.077456
			 0.012360 -0.244908  0.082485
			 0.011300 -0.247063  0.084805
			 0.009250 -0.250410  0.085881
			 0.006000 -0.248253  0.083963
			 0.003083 -0.244682  0.079214
			 0.000862 -0.244775  0.072110
			 0.001230 -0.244040  0.063682
			 0.000632 -0.245666  0.060437
			 0.000742 -0.244893  0.058516
			 0.005897 -0.240252  0.058536
			 0.015130 -0.241180  0.054385
			 0.017685 -0.240977  0.061616
			 0.010707 -0.241112  0.073558
			 0.013048 -0.241624  0.067256
			 0.007681 -0.240877  0.069881
			 0.012491 -0.240340  0.065544
			 0.009010 -0.242982  0.078658
			 0.007932 -0.244008  0.079880
			 0.006610 -0.245080  0.080439
			 0.005015 -0.244107  0.078661
			 0.004018 -0.243401  0.075853
			 0.003901 -0.242300  0.071396
			 0.004573 -0.242303  0.066848
			 0.005872 -0.241368  0.064254
			 0.007407 -0.240824  0.063275
			 0.008606 -0.240091  0.062151
			 0.011238 -0.240052  0.062511
		</DataArray>
	</Points>
			<Polys>
				<DataArray type="Int32" Name="connectivity" format="ascii">
					0 1 2 
					3 1 0 
					4 5 0 
					2 4 0 
					2 1 6 
					6 1 7 
					7 1 8 
					8 1 9 
					9 1 10 
					10 1 3 
					11 4 2 
					6 11 2 
					3 12 10 
					13 12 3 
					14 13 3 
					4 15 5 
					16 15 4 
					11 16 4 
					15 17 5 
					18 11 6 
					7 18 6 
					19 18 7 
					8 19 7 
					9 19 8 
					10 20 9 
					9 21 19 
					22 21 9 
					20 22 9 
					12 20 10 
					23 16 11 
					18 23 11 
					12 24 20 
					17 24 12 
					13 17 12 
					15 25 17 
					26 25 15 
					16 26 15 
					27 26 16 
					23 27 16 
					25 28 17 
					17 29 24 
					30 23 18 
					19 30 18 
					21 30 19 
					24 22 20 
					21 31 30 
					32 31 21 
					22 32 21 
					33 32 22 
					24 33 22 
					34 27 23 
					30 34 23 
					29 33 24 
					25 35 28 
					36 35 25 
					26 36 25 
					37 36 26 
					27 37 26 
					38 37 27 
					34 38 27 
					35 39 28 
					29 40 33 
					31 34 30 
					31 41 34 
					42 41 31 
					32 42 31 
					43 42 32 
					33 43 32 
					40 43 33 
					41 38 34 
					35 44 39 
					45 44 35 
					36 45 35 
					46 45 36 
					37 46 36 
					47 46 37 
					38 47 37 
					48 47 38 
					41 48 38 
					44 49 39 
					40 50 43 
					51 48 41 
					42 51 41 
					52 51 42 
					43 52 42 
					50 52 43 
					44 53 49 
					54 53 44 
					45 54 44 
					55 54 45 
					46 55 45 
					56 55 46 
					47 56 46 
					57 56 47 
					48 57 47 
					58 57 48 
					51 58 48 
					53 59 49 
					50 60 52 
					61 58 51 
					52 61 51 
					60 61 52 
					53 62 59 
					63 62 53 
					54 63 53 
					64 63 54 
					55 64 54 
					65 64 55 
					56 65 55 
					66 65 56 
					57 66 56 
					67 66 57 
					58 67 57 
					68 67 58 
					61 68 58 
					62 68 59 
					60 68 61 
					62 69 68 
					70 69 62 
					63 70 62 
					71 70 63 
					64 71 63 
					72 71 64 
					65 72 64 
					73 72 65 
					66 73 65 
					74 73 66 
					67 74 66 
					75 74 67 
					68 75 67 
					69 76 68 
					76 75 68 
					69 77 76 
					78 77 69 
					70 78 69 
					79 78 70 
					71 79 70 
					80 79 71 
					72 80 71 
					81 80 72 
					73 81 72 
					82 81 73 
					74 82 73 
					83 82 74 
					75 83 74 
					84 83 75 
					76 84 75 
					77 85 76 
					77 86 85 
					87 86 77 
					78 87 77 
					88 87 78 
					79 88 78 
					89 88 79 
					80 89 79 
					90 89 80 
					81 90 80 
					91 90 81 
					82 91 81 
					92 91 82 
					83 92 82 
					93 92 83 
					84 93 83 
					86 93 85 
					86 94 93 
					95 94 86 
					87 95 86 
					96 95 87 
					88 96 87 
					97 96 88 
					89 97 88 
					98 97 89 
					90 98 89 
					99 98 90 
					91 99 90 
					100 99 91 
					92 100 91 
					101 100 92 
					93 101 92 
					94 102 93 
					94 103 102 
					104 103 94 
					95 104 94 
					105 104 95 
					96 105 95 
					106 105 96 
					97 106 96 
					107 106 97 
					98 107 97 
					108 107 98 
					99 108 98 
					109 108 99 
					100 109 99 
					110 109 100 
					101 110 100 
					103 110 102 
					103 111 110 
					112 111 103 
					104 112 103 
					113 112 104 
					105 113 104 
					114 113 105 
					106 114 105 
					115 114 106 
					107 115 106 
					116 115 107 
					108 116 107 
					117 116 108 
					109 117 108 
					118 117 109 
					110 118 109 
					111 118 110 
					111 119 118 
					120 119 111 
					112 120 111 
					121 120 112 
					113 121 112 
					122 121 113 
					114 122 113 
					123 122 114 
					115 123 114 
					124 123 115 
					116 124 115 
					125 124 116 
					117 125 116 
					126 125 117 
					118 126 117 
					119 127 118 
					119 128 127 
					129 128 119 
					120 129 119 
					130 129 120 
					121 130 120 
					131 130 121 
					122 131 121 
					132 131 122 
					123 132 122 
					133 132 123 
					124 133 123 
					134 133 124 
					125 134 124 
					135 134 125 
					126 135 125 
					128 136 127 
					128 137 136 
					138 137 128 
					129 138 128 
					139 138 129 
					130 139 129 
					140 139 130 
					131 140 130 
					141 140 131 
					132 141 131 
					142 141 132 
					133 142 132 
					143 142 133 
					134 143 133 
					144 143 134 
					135 144 134 
					137 145 136 
					137 146 145 
					137 147 146 
					138 147 137 
					138 148 147 
					139 148 138 
					139 149 148 
					139 150 149 
					140 150 139 
					140 151 150 
					141 151 140 
					141 152 151 
					142 152 141 
					142 153 152 
					143 153 142 
					143 154 153 
					144 154 143 
					144 155 154 
					147 156 146 
					147 157 156 
					148 157 147 
					148 158 157 
					149 158 148 
					149 159 158 
					150 159 149 
					150 160 159 
					150 161 160 
					151 161 150 
					151 162 161 
					152 162 151 
					152 163 162 
					153 163 152 
					153 164 163 
					154 164 153 
					154 165 164 
					155 165 154 
					155 166 165 
					157 167 156 
					157 168 167 
					158 168 157 
					158 169 168 
					158 170 169 
					159 170 158 
					159 171 170 
					160 171 159 
					160 172 171 
					161 172 160 
					161 173 172 
					162 173 161 
					162 174 173 
					163 174 162 
					163 175 174 
					163 176 175 
					164 176 163 
					164 177 176 
					165 177 164 
					165 178 177 
					166 178 165 
					166 167 178 
					168 179 167 
					167 180 178 
					167 181 180 
					168 182 179 
					168 183 182 
					169 183 168 
					169 184 183 
					170 184 169 
					170 185 184 
					171 185 170 
					171 186 185 
					172 186 171 
					172 187 186 
					173 187 172 
					173 188 187 
					173 189 188 
					174 189 173 
					174 190 189 
					175 190 174 
					175 191 190 
					176 191 175 
					176 192 191 
					177 192 176 
					177 193 192 
					177 194 193 
					178 194 177 
					178 180 194 
					195 196 179 
					182 195 179 
					179 197 182 
					180 198 194 
					196 198 180 
					181 196 180 
					194 197 180 
					180 197 181 
					196 195 182 
					183 196 182 
					182 197 183 
					199 196 183 
					184 199 183 
					183 197 184 
					200 199 184 
					185 200 184 
					184 197 185 
					201 200 185 
					186 201 185 
					185 197 186 
					202 201 186 
					187 202 186 
					186 197 187 
					203 202 187 
					188 203 187 
					187 197 188 
					204 203 188 
					189 204 188 
					188 197 189 
					205 204 189 
					190 205 189 
					189 197 190 
					206 205 190 
					191 206 190 
					190 197 191 
					207 206 191 
					192 207 191 
					191 197 192 
					208 207 192 
					193 208 192 
					192 197 193 
					209 208 193 
					194 209 193 
					193 197 194 
					198 209 194 
				</DataArray>
				<DataArray type="Int32" Name="offsets" format="ascii">
					3 6 9 12 15 18 21 24 27 30 33 36 39 42 45 48 51 54 57 60 63 66 69 72 75 78 81 84 87 90 93 96 99 102 105 108 111 114 117 120 123 126 129 132 135 138 141 144 147 150 153 156 159 162 165 168 171 174 177 180 183 186 189 192 195 198 201 204 207 210 213 216 219 222 225 228 231 234 237 240 243 246 249 252 255 258 261 264 267 270 273 276 279 282 285 288 291 294 297 300 303 306 309 312 315 318 321 324 327 330 333 336 339 342 345 348 351 354 357 360 363 366 369 372 375 378 381 384 387 390 393 396 399 402 405 408 411 414 417 420 423 426 429 432 435 438 441 444 447 450 453 456 459 462 465 468 471 474 477 480 483 486 489 492 495 498 501 504 507 510 513 516 519 522 525 528 531 534 537 540 543 546 549 552 555 558 561 564 567 570 573 576 579 582 585 588 591 594 597 600 603 606 609 612 615 618 621 624 627 630 633 636 639 642 645 648 651 654 657 660 663 666 669 672 675 678 681 684 687 690 693 696 699 702 705 708 711 714 717 720 723 726 729 732 735 738 741 744 747 750 753 756 759 762 765 768 771 774 777 780 783 786 789 792 795 798 801 804 807 810 813 816 819 822 825 828 831 834 837 840 843 846 849 852 855 858 861 864 867 870 873 876 879 882 885 888 891 894 897 900 903 906 909 912 915 918 921 924 927 930 933 936 939 942 945 948 951 954 957 960 963 966 969 972 975 978 981 984 987 990 993 996 999 1002 1005 1008 1011 1014 1017 1020 1023 1026 1029 1032 1035 1038 1041 1044 1047 1050 1053 1056 1059 1062 1065 1068 1071 1074 1077 1080 1083 1086 1089 1092 1095 1098 1101 1104 1107 1110 1113 1116 1119 1122 1125 1128 1131 1134 1137 1140 1143 1146 1149 1152 1155 1158 1161 1164 1167 1170 
				</DataArray>
			</Polys>
		</Piece>
	</PolyData>
</VTKFile>
