<?xml version="1.0"?>
<VTKFile type="PolyData" version="0.1" byte_order="LittleEndian" compressor="vtkZLibDataCompressor">
	<PolyData>
		<Piece NumberOfPoints="1997" NumberOfVerts="0" NumberOfLines="0" NumberOfStrips="0" NumberOfPolys="3990">
		<PointData Normals="Normals">
		<DataArray type="Float32" Name="Normals" NumberOfComponents="3" format="ascii">
			 0.574913 -0.816008  0.060049
			 0.716402 -0.697123  0.028090
			 0.298332 -0.915945  0.268408
			 0.322240 -0.946656  0.001941
			 0.682067 -0.715778 -0.149821
			 0.484047 -0.842354 -0.236936
			 0.453770 -0.873227  0.177672
			 0.734008 -0.654834  0.180068
			 0.783836 -0.620932 -0.006657
			 0.722778 -0.607509 -0.329431
			 0.770046 -0.581305 -0.262896
			-0.059683 -0.935479  0.348305
			-0.046584 -0.950035  0.308647
			 0.123229 -0.966441  0.225403
			-0.015924 -0.994823 -0.100365
			-0.086565 -0.992045  0.091398
			 0.290049 -0.936277 -0.198133
			 0.646850 -0.710250 -0.277723
			 0.268367 -0.908093 -0.321476
			 0.438636 -0.776316 -0.452694
			 0.519245 -0.745029 -0.418709
			 0.125576 -0.954802  0.269414
			 0.454827 -0.841437  0.291746
			 0.626950 -0.670241  0.397128
			 0.757699 -0.616963  0.212719
			 0.751929 -0.551992  0.360427
			 0.679590 -0.677114  0.282267
			 0.714904 -0.693092  0.092393
			 0.670002 -0.727526 -0.147658
			 0.587475 -0.701581 -0.403307
			 0.675755 -0.518282 -0.524156
			 0.484071 -0.594129 -0.642406
			 0.687209 -0.587785 -0.426910
			 0.702863 -0.519498 -0.485907
			-0.281628 -0.900648  0.330937
			-0.504041 -0.757207  0.415428
			-0.386561 -0.873916  0.294689
			-0.262174 -0.897459  0.354729
			-0.268853 -0.955401  0.122177
			-0.324738 -0.931966  0.161198
			 0.016176 -0.992508 -0.121107
			 0.190668 -0.888911 -0.416512
			-0.000978 -0.962367 -0.271751
			 0.587262 -0.600779 -0.542391
			 0.380222 -0.740408 -0.554281
			 0.098774 -0.905333  0.413057
			 0.353017 -0.818041  0.454079
			 0.424496 -0.680847  0.596868
			 0.634725 -0.525324  0.566709
			 0.770441 -0.566686  0.292040
			 0.584084 -0.590503  0.556913
			 0.689252 -0.530048  0.493944
			 0.695127 -0.489491  0.526495
			 0.538844 -0.740869  0.400949
			 0.650812 -0.750770  0.113086
			 0.554189 -0.811521  0.185222
			 0.538617 -0.825863 -0.166859
			 0.483248 -0.777230 -0.402970
			 0.570887 -0.541825 -0.616858
			 0.575164 -0.421647 -0.700999
			 0.386009 -0.817745 -0.426954
			 0.494607 -0.421283 -0.760187
			 0.305253 -0.736364 -0.603811
			 0.260495 -0.530517 -0.806656
			 0.166848 -0.585566 -0.793268
			 0.390027 -0.426799 -0.815917
			-0.498874 -0.785574  0.366058
			-0.604118 -0.722456  0.336302
			-0.682462 -0.616097  0.393281
			-0.695126 -0.582769  0.420927
			-0.418676 -0.873846  0.247193
			-0.534425 -0.753028  0.383847
			-0.324960 -0.835154  0.443755
			-0.260930 -0.965201 -0.017373
			-0.590957 -0.775985  0.220493
			 0.069545 -0.837948 -0.541300
			-0.115291 -0.932455 -0.342397
			-0.218136 -0.962434 -0.161673
			 0.330647 -0.693198 -0.640429
			 0.006115 -0.876173  0.481957
			 0.054440 -0.855040  0.515697
			 0.522689 -0.522111  0.673941
			 0.374880 -0.576183  0.726277
			 0.072251 -0.735396  0.673775
			 0.018833 -0.813810  0.580826
			 0.568922 -0.385623  0.726377
			 0.625607 -0.343169  0.700607
			 0.408671 -0.497781  0.764985
			 0.578766 -0.346025  0.738442
			 0.367360 -0.619208  0.693994
			 0.441534 -0.695027  0.567438
			 0.287496 -0.804282  0.520074
			 0.252835 -0.669808  0.698163
			 0.473129 -0.837695  0.272793
			 0.370176 -0.928956 -0.003136
			 0.382828 -0.875465 -0.294965
			 0.533159 -0.495215 -0.685932
			 0.391657 -0.516873 -0.761214
			 0.486645 -0.358463 -0.796669
			 0.496333 -0.308246 -0.811565
			 0.255477 -0.928978 -0.267827
			 0.140282 -0.813873 -0.563855
			 0.241233 -0.859814 -0.450030
			 0.075645 -0.733675 -0.675276
			 0.196864 -0.437056 -0.877625
			 0.042395 -0.507945 -0.860346
			-0.019942 -0.631994 -0.774717
			 0.225814 -0.210807 -0.951088
			-0.775669 -0.508694  0.373588
			-0.556001 -0.728024  0.401053
			-0.618149 -0.693041  0.370926
			-0.819200 -0.414631  0.396224
			-0.782645 -0.527169  0.330997
			-0.759242 -0.477017  0.442726
			-0.358901 -0.818137  0.449269
			-0.511575 -0.856201  0.072193
			-0.640330 -0.756490  0.133046
			-0.775461 -0.577045  0.256282
			 0.116776 -0.696251 -0.708236
			-0.264109 -0.839000 -0.475736
			-0.109220 -0.725900 -0.679074
			-0.419775 -0.865824 -0.272282
			-0.295838 -0.924482 -0.240443
			-0.497910 -0.865984 -0.046453
			-0.366658 -0.811658  0.454723
			 0.262900 -0.439638  0.858838
			 0.039346 -0.628391  0.776902
			-0.367892 -0.770958  0.519884
			-0.372720 -0.713433  0.593374
			 0.395584 -0.331188  0.856637
			 0.454997 -0.178394  0.872441
			 0.553199 -0.255010  0.793058
			 0.421096 -0.297720  0.856762
			 0.288741 -0.446962  0.846672
			 0.123225 -0.761464  0.636386
			 0.203387 -0.877547  0.434218
			 0.055262 -0.466764  0.882654
			 0.310640 -0.929643  0.198159
			 0.215625 -0.941333  0.259612
			 0.202975 -0.974389  0.096782
			 0.328405 -0.376281 -0.866350
			 0.090145 -0.567712 -0.818277
			 0.505469 -0.233557 -0.830634
			 0.434069 -0.259751 -0.862620
			 0.449493 -0.107629 -0.886776
			 0.146343 -0.978418 -0.145880
			 0.143772 -0.925722 -0.349811
			 0.097800 -0.922550 -0.373279
			 0.016362 -0.819572 -0.572743
			-0.026296 -0.694666 -0.718852
			 0.736347 -0.290086 -0.611264
			 0.318504 -0.268065 -0.909228
			-0.142019 -0.507677 -0.849762
			 0.145225 -0.399163 -0.905306
			 0.031089 -0.212489 -0.976669
			 0.095918 -0.145266 -0.984732
			 0.129175 -0.064729 -0.989507
			 0.346884  0.021729 -0.937656
			-0.841759 -0.379666  0.383791
			-0.637293 -0.671903  0.377364
			-0.852792 -0.405978  0.328525
			-0.628507 -0.593577  0.502638
			-0.684203 -0.517445  0.513924
			-0.768085 -0.473060  0.431578
			-0.635590 -0.636051  0.437566
			-0.848151 -0.435186  0.302082
			-0.722951 -0.680560  0.119079
			-0.847519 -0.433520  0.306223
			-0.625479 -0.765957 -0.148614
			-0.514778 -0.766470 -0.384093
			-0.358140 -0.749010 -0.557422
			-0.250578 -0.659955 -0.708287
			-0.480595 -0.703824 -0.523125
			 0.106288 -0.469682  0.876414
			-0.119728 -0.451244  0.884333
			-0.056117 -0.517202  0.854022
			-0.092182 -0.417446  0.904014
			 0.260289 -0.244095  0.934167
			-0.381568 -0.623533  0.682358
			 0.371059 -0.111726  0.921863
			 0.295544 -0.084571  0.951578
			 0.190464 -0.272935  0.942990
			 0.214620 -0.206502  0.954618
			 0.108418 -0.683263  0.722078
			 0.234031 -0.789144  0.567875
			 0.176316 -0.878629  0.443760
			 0.197142 -0.913504  0.355873
			 0.029408 -0.480110  0.876715
			 0.011217 -0.304573  0.952423
			 0.169189 -0.527044  0.832826
			 0.011105 -0.398881  0.916936
			 0.097868 -0.183649  0.978108
			-0.090940 -0.371354  0.924027
			-0.101380 -0.234305  0.966862
			 0.223400 -0.914184  0.338171
			 0.131022 -0.986203 -0.101176
			 0.176232 -0.980832 -0.083128
			 0.361522 -0.848474  0.386514
			 0.344980 -0.934579  0.086893
			 0.099607 -0.403730 -0.909440
			 0.024579 -0.498493 -0.866545
			 0.351139 -0.269321 -0.896754
			 0.313118 -0.213314 -0.925448
			-0.224859 -0.581552 -0.781816
			 0.479914 -0.025101 -0.876956
			 0.366270 -0.257563 -0.894152
			 0.526883 -0.087539 -0.845418
			 0.516427 -0.031534 -0.855750
			 0.057480 -0.797502 -0.600572
			 0.267704 -0.942961 -0.197887
			 0.195585 -0.838820 -0.508062
			-0.093745 -0.531758 -0.841692
			 0.001450 -0.491795 -0.870710
			 0.067563 -0.594552 -0.801214
			 0.832471 -0.125613 -0.539642
			 0.824196 -0.168544 -0.540642
			-0.176886 -0.253268 -0.951087
			-0.231328 -0.348042 -0.908490
			-0.297179 -0.268733 -0.916225
			-0.118644 -0.213432 -0.969727
			-0.061386 -0.134881 -0.988958
			 0.234194 -0.073578 -0.969402
			 0.073787 -0.141981 -0.987115
			 0.486256 -0.007736 -0.873782
			-0.837175 -0.398885  0.374203
			-0.853850 -0.439976  0.278139
			-0.567067 -0.529803  0.630670
			-0.631861 -0.483011  0.606178
			-0.441312 -0.477276  0.759903
			-0.702318 -0.452628  0.549434
			-0.736427 -0.409080  0.538822
			-0.795253 -0.306301  0.523213
			-0.806331 -0.483110  0.341227
			-0.849190 -0.322044  0.418527
			-0.830265 -0.417433  0.369337
			-0.801030 -0.595869  0.057369
			-0.816425 -0.419353  0.396980
			-0.856120 -0.403586  0.322765
			-0.852582 -0.512117  0.104112
			-0.709304 -0.686621 -0.159498
			-0.596888 -0.703653 -0.385484
			-0.520884 -0.662609 -0.538172
			-0.444118 -0.632562 -0.634527
			-0.748531 -0.628660 -0.210921
			-0.666651 -0.644168 -0.374998
			-0.232406 -0.500292  0.834083
			 0.044747 -0.418636  0.907051
			-0.440829 -0.476932  0.760399
			-0.254153 -0.437569  0.862519
			-0.338252 -0.518514  0.785321
			 0.100411 -0.099487  0.989959
			-0.091598 -0.228838  0.969146
			 0.342794  0.026269  0.939043
			 0.262581 -0.072086  0.962214
			 0.153482 -0.023799  0.987865
			 0.232318  0.137410  0.962885
			 0.120007 -0.119292  0.985580
			 0.326770 -0.618634  0.714502
			 0.456263 -0.567549  0.685356
			 0.385372 -0.722220  0.574357
			 0.088404 -0.371632  0.924161
			-0.111747 -0.025947  0.993398
			 0.006264 -0.034267  0.999393
			-0.082508 -0.260051  0.962063
			 0.235854 -0.136613  0.962138
			 0.093443 -0.189867  0.977353
			 0.400323 -0.185897  0.897320
			 0.404181 -0.405850  0.819710
			 0.220478 -0.293386  0.930223
			-0.000556 -0.032765  0.999463
			-0.145256 -0.097686  0.984560
			 0.615409 -0.637742  0.463203
			 0.625021 -0.539987  0.563705
			 0.516393 -0.672593  0.530054
			 0.570248 -0.770962  0.283610
			 0.677782 -0.719865  0.149687
			 0.486797 -0.872888 -0.033094
			-0.306293 -0.462653 -0.831947
			 0.037117 -0.215998 -0.975688
			 0.442470 -0.075066 -0.893636
			 0.268725 -0.044138 -0.962205
			-0.476472 -0.575902 -0.664312
			 0.488775  0.004717 -0.872397
			 0.527488  0.029488 -0.849051
			 0.161542 -0.637375 -0.753430
			 0.159135 -0.743021 -0.650074
			 0.298473 -0.862496 -0.408674
			 0.475959 -0.830734 -0.288693
			 0.488088 -0.697853 -0.524187
			 0.391686 -0.620717 -0.679186
			-0.124822 -0.336615 -0.933333
			 0.035185 -0.349174 -0.936397
			 0.159887 -0.431903 -0.887635
			-0.282444 -0.123833 -0.951258
			-0.178833 -0.063034 -0.981858
			-0.294377 -0.265263 -0.918138
			-0.193085 -0.320322 -0.927422
			-0.308270 -0.267984 -0.912773
			-0.110214 -0.131203 -0.985210
			 0.208768 -0.306576 -0.928669
			 0.016980 -0.314850 -0.948989
			 0.290841 -0.256608 -0.921718
			 0.424901 -0.172619 -0.888629
			 0.485825 -0.132247 -0.863994
			 0.398957 -0.193360 -0.896351
			-0.556261 -0.428728  0.711875
			-0.661717 -0.287109  0.692603
			-0.733696 -0.187025  0.653232
			-0.590966 -0.163882  0.789874
			-0.774757 -0.475886  0.416275
			-0.798762 -0.264069  0.540599
			-0.846370 -0.340885  0.409214
			-0.874782 -0.274433  0.399303
			-0.823221 -0.468516  0.320624
			-0.857870 -0.495255  0.137045
			-0.821826 -0.559198 -0.109083
			-0.626858 -0.606075 -0.489614
			-0.785046 -0.540664 -0.302299
			-0.493864 -0.351474  0.795339
			-0.271069 -0.395519  0.877546
			-0.260999 -0.128401  0.956762
			-0.025161  0.035042  0.999069
			-0.159912 -0.021247  0.986903
			-0.393020 -0.216922  0.893577
			 0.168444  0.100273  0.980598
			 0.125461  0.102731  0.986765
			 0.043907  0.246684  0.968101
			 0.047416  0.171806  0.983989
			 0.623917 -0.191980  0.757543
			 0.559421 -0.500689  0.660575
			-0.070932  0.061392  0.995590
			-0.117800 -0.004047  0.993029
			-0.061581  0.166153  0.984175
			-0.134308  0.076151  0.988009
			 0.031345  0.031741  0.999004
			 0.178266  0.034755  0.983368
			 0.402454 -0.071476  0.912645
			 0.470212  0.137201  0.871824
			 0.419709  0.152301  0.894790
			 0.336352  0.134720  0.932050
			 0.598471  0.107430  0.793909
			-0.132698 -0.004567  0.991146
			 0.006698  0.172683  0.984955
			 0.751265 -0.377907  0.541098
			 0.761586 -0.450821  0.465562
			 0.710348 -0.595932  0.374527
			 0.752055 -0.150724  0.641635
			 0.746549 -0.563620  0.353548
			 0.857503 -0.415351  0.303600
			 0.597250 -0.800187 -0.054719
			 0.801447 -0.597956  0.011432
			 0.895827 -0.396197  0.201302
			-0.662685 -0.504649 -0.553333
			-0.225013 -0.291722 -0.929660
			-0.596899 -0.434381 -0.674555
			-0.484655 -0.369296 -0.792925
			-0.424988 -0.284170 -0.859437
			-0.140758 -0.131505 -0.981271
			 0.064148  0.008579 -0.997904
			 0.377197  0.034274 -0.925499
			 0.384003  0.043088 -0.922326
			 0.349770 -0.123397 -0.928674
			 0.260015 -0.604767 -0.752761
			 0.393737 -0.399077 -0.828075
			 0.242700 -0.465132 -0.851322
			 0.682404 -0.682154 -0.262660
			 0.815432 -0.459560 -0.351959
			 0.685455 -0.454838 -0.568572
			 0.546198 -0.375659 -0.748698
			-0.142995 -0.273995 -0.951041
			 0.214710 -0.225154 -0.950371
			 0.049545 -0.157036 -0.986349
			 0.356545 -0.254875 -0.898841
			-0.225955 -0.057846 -0.972419
			-0.221639 -0.190687 -0.956303
			-0.348859 -0.210892 -0.913138
			-0.244868 -0.248581 -0.937149
			-0.137094 -0.389242 -0.910876
			-0.183128 -0.389704 -0.902549
			-0.111115 -0.484463 -0.867726
			-0.064135 -0.371391 -0.926259
			 0.428447 -0.312889 -0.847664
			 0.192918 -0.484171 -0.853441
			 0.075279 -0.485478 -0.871002
			 0.384225 -0.316588 -0.867262
			 0.258869 -0.225253 -0.939280
			 0.143735 -0.355355 -0.923614
			 0.236995 -0.365868 -0.899985
			-0.630510 -0.076721  0.772381
			-0.383912 -0.091768  0.918798
			-0.530959 -0.060438  0.845239
			-0.823331 -0.431454  0.368747
			-0.677893 -0.180342  0.712697
			-0.783709 -0.198461  0.588569
			-0.873857 -0.185308  0.449483
			-0.901952 -0.294360  0.315966
			-0.915010 -0.186332  0.357823
			-0.898631 -0.103957  0.426212
			-0.834924 -0.450561  0.316065
			-0.883555 -0.423162  0.200662
			-0.871036 -0.488446 -0.052125
			-0.834148 -0.432578 -0.342160
			-0.910906 -0.401124 -0.096695
			-0.373911  0.054730  0.925848
			-0.113205  0.125296  0.985640
			-0.186953  0.195175  0.962785
			-0.080980  0.279872  0.956616
			-0.279633  0.266505  0.922378
			 0.739166  0.122495  0.662291
			 0.755202  0.029494  0.654828
			 0.069478  0.196790  0.977981
			 0.176552  0.396743  0.900791
			 0.043341  0.389555  0.919983
			-0.149717  0.258302  0.954392
			-0.255778  0.074985  0.963823
			 0.277659  0.338806  0.898953
			 0.316956  0.298987  0.900081
			 0.575291  0.325781  0.750271
			 0.530371  0.335712  0.778462
			 0.487650  0.387240  0.782459
			 0.609389  0.373579  0.699345
			 0.666122  0.321463  0.673010
			-0.192670  0.106178  0.975502
			-0.147648  0.198084  0.969001
			 0.851205 -0.128084  0.508965
			 0.805453 -0.406781  0.431016
			 0.847301 -0.134363  0.513836
			 0.809609 -0.407117  0.422835
			 0.832180 -0.345105  0.434027
			 0.837844  0.149519  0.525035
			 0.803209  0.192281  0.563811
			 0.882162 -0.230139  0.410885
			 0.936340 -0.114864  0.331773
			 0.952528 -0.290173  0.092143
			 0.900299 -0.408706 -0.149739
			 0.950949 -0.066485  0.302119
			-0.794847 -0.381162 -0.472159
			-0.625959 -0.344927 -0.699429
			-0.464995 -0.200723 -0.862259
			-0.236294 -0.095783 -0.966949
			 0.115496 -0.076377 -0.990367
			-0.193280 -0.056424 -0.979520
			 0.620845 -0.033792 -0.783205
			 0.629526 -0.139431 -0.764366
			 0.878684 -0.241010 -0.412103
			 0.965528 -0.084071 -0.246348
			 0.755901 -0.242014 -0.608312
			 0.742050 -0.088785 -0.664439
			-0.133871 -0.145340 -0.980283
			 0.344913 -0.107371 -0.932473
			 0.220719 -0.074925 -0.972455
			 0.061565 -0.071030 -0.995572
			-0.053832 -0.112872 -0.992150
			 0.435322 -0.055432 -0.898567
			-0.210374 -0.182883 -0.960363
			 0.002601 -0.536877 -0.843657
			 0.063303 -0.462212 -0.884507
			 0.007684 -0.271647 -0.962366
			 0.346467 -0.398984 -0.848983
			 0.392615 -0.367920 -0.842904
			 0.247107 -0.462333 -0.851579
			 0.321608 -0.422883 -0.847194
			 0.173043 -0.465877 -0.867764
			-0.110006 -0.340934 -0.933629
			 0.060094 -0.454168 -0.888887
			-0.118139 -0.436497 -0.891915
			-0.580433  0.022662  0.813992
			-0.849630 -0.176465  0.496980
			-0.733980 -0.034105  0.678314
			-0.845025 -0.090894  0.526944
			-0.930488 -0.244653  0.272647
			-0.796715 -0.024320  0.603866
			-0.721746  0.136725  0.678520
			-0.810891  0.094103  0.577581
			-0.873914 -0.001253  0.486079
			-0.935376 -0.052916  0.349674
			-0.964418 -0.195443  0.178043
			-0.946835 -0.318163  0.047715
			-0.905554 -0.354625 -0.232837
			-0.968850 -0.244854 -0.037103
			-0.161132  0.327224  0.931107
			-0.277489  0.356202  0.892256
			-0.561657  0.179751  0.807608
			-0.315470  0.359529  0.878190
			 0.764228  0.372578  0.526441
			 0.378601  0.551025  0.743661
			 0.237110  0.582261  0.777658
			 0.084024  0.560434  0.823926
			-0.154161  0.417085  0.895698
			 0.429110  0.521644  0.737395
			 0.466439  0.618509  0.632362
			 0.604172  0.504900  0.616484
			 0.580039  0.506877  0.637676
			 0.543700  0.610337  0.576090
			 0.671767  0.540545  0.506499
			 0.872949  0.119956  0.472832
			 0.836633 -0.040685  0.546251
			 0.813515  0.209362  0.542551
			 0.896508 -0.010053  0.442913
			 0.816688  0.388075  0.427106
			 0.810935  0.403936  0.423345
			 0.917516  0.118950  0.379492
			 0.894553  0.167345  0.414453
			 0.992866 -0.100447 -0.064238
			 0.993971  0.007482  0.109385
			 0.976845  0.129288  0.170463
			-0.847279 -0.295958 -0.441053
			-0.918501 -0.288438 -0.270480
			-0.686568 -0.283900 -0.669347
			-0.495843 -0.155541 -0.854369
			-0.155486 -0.145703 -0.977034
			-0.180267 -0.262918 -0.947828
			-0.252793 -0.090853 -0.963245
			 0.784269  0.115094 -0.609652
			 0.642800  0.157984 -0.749566
			 0.770111  0.212181 -0.601588
			 0.867880  0.061142 -0.492996
			 0.972286  0.226445 -0.058158
			 0.940021  0.207565 -0.270696
			 0.290399 -0.069572 -0.954373
			 0.181455 -0.040206 -0.982577
			 0.191141  0.096485 -0.976809
			 0.271734  0.127035 -0.953951
			 0.242353  0.067466 -0.967839
			 0.194380 -0.140362 -0.970832
			 0.267291  0.137858 -0.953704
			 0.469963  0.050832 -0.881221
			 0.231308 -0.279934 -0.931737
			 0.188171 -0.443205 -0.876448
			 0.223711 -0.435628 -0.871884
			 0.358996 -0.406146 -0.840338
			 0.396098 -0.479668 -0.782959
			 0.287758 -0.508867 -0.811326
			 0.144927 -0.597039 -0.789012
			-0.170880 -0.642026 -0.747397
			-0.474402 -0.356601 -0.804847
			-0.382218 -0.462693 -0.799890
			-0.210539 -0.534608 -0.818455
			-0.487730  0.310090  0.816066
			-0.689645  0.328876  0.645159
			-0.516773  0.379904  0.767215
			-0.829330  0.180423  0.528829
			-0.972656  0.031147  0.230152
			-0.903217  0.147721  0.402961
			-0.983842 -0.121080  0.131886
			-0.968980 -0.237397 -0.068702
			-0.486621  0.410577  0.771120
			-0.328805  0.383329  0.863103
			 0.783234  0.496424  0.374310
			 0.334237  0.643864  0.688277
			 0.146197  0.586245  0.796833
			-0.203510  0.497298  0.843373
			-0.053085  0.593525  0.803063
			 0.553978  0.665751  0.499885
			 0.453213  0.634720  0.625882
			 0.588926  0.652726  0.476566
			 0.734814  0.594365  0.326771
			 0.835242  0.304299  0.458010
			 0.781923  0.443441  0.438129
			 0.869338  0.288411  0.401335
			 0.794958  0.514243  0.321862
			 0.732575  0.552541  0.397533
			 0.768172  0.545300  0.335499
			 0.811358  0.410113  0.416540
			 0.863586  0.359594  0.353427
			 0.986153  0.152688  0.064722
			 0.994863  0.084059  0.056403
			 0.990990  0.102593  0.086104
			 0.858199  0.405678  0.314516
			-0.875646 -0.199000 -0.440048
			-0.817682 -0.259966 -0.513629
			-0.720401 -0.195210 -0.665518
			-0.579899 -0.136128 -0.803235
			-0.715754 -0.168753 -0.677656
			-0.410483 -0.290239 -0.864445
			-0.478900 -0.162063 -0.862781
			 0.831463  0.303456 -0.465385
			 0.767139  0.321893 -0.554871
			 0.572905  0.199928 -0.794864
			 0.871502  0.308590 -0.381125
			 0.924629  0.351284  0.147176
			 0.921066  0.375181 -0.104293
			 0.809850  0.560258  0.173939
			 0.377405  0.054476 -0.924445
			 0.422036  0.148203 -0.894383
			 0.350180  0.341938 -0.872039
			 0.466377  0.304153 -0.830653
			 0.336662 -0.096225 -0.936696
			 0.344762 -0.019882 -0.938480
			 0.493956  0.502094 -0.709865
			 0.465618  0.238447 -0.852257
			 0.389391 -0.162126 -0.906692
			 0.389531 -0.070403 -0.918319
			 0.355903 -0.342538 -0.869483
			 0.223437 -0.504122 -0.834228
			 0.402138 -0.454720 -0.794679
			 0.571611 -0.439162 -0.693107
			 0.256449 -0.539983 -0.801656
			 0.344471 -0.491553 -0.799822
			 0.306364 -0.496055 -0.812447
			 0.226865 -0.575498 -0.785707
			-0.117088 -0.736107 -0.666661
			 0.160224 -0.642330 -0.749493
			 0.251205 -0.589696 -0.767564
			-0.513155 -0.601657 -0.612112
			-0.534208 -0.685986 -0.494009
			-0.444122 -0.726626 -0.524186
			-0.588761 -0.381189 -0.712780
			-0.671753 -0.320786 -0.667716
			-0.729025 -0.428845 -0.533493
			-0.729930  0.316306  0.605931
			-0.628409  0.373116  0.682558
			-0.828314  0.175416  0.532096
			-0.975440 -0.089401  0.201309
			-0.944895 -0.059084  0.321998
			-0.955772 -0.204446  0.211427
			-0.901284 -0.198743 -0.384952
			-0.940460 -0.265584 -0.212134
			-0.970821 -0.225938  0.080366
			-0.415945  0.360079  0.835064
			-0.537941  0.347150  0.768184
			-0.218366  0.511318  0.831186
			-0.340142  0.428217  0.837218
			 0.420560  0.639330  0.643729
			 0.229284  0.664874  0.710895
			 0.015127  0.647932  0.761548
			-0.040426  0.632126  0.773810
			-0.110114  0.582170  0.805576
			 0.666622  0.643796  0.375688
			 0.587525  0.613584  0.527568
			 0.538238  0.630178  0.559620
			 0.690733  0.611122  0.386547
			 0.761660  0.497482  0.415193
			 0.722804  0.567246  0.394697
			 0.765989  0.552414  0.328786
			-0.775338 -0.182963 -0.604463
			 0.866192  0.407713 -0.288932
			 0.870891  0.467836 -0.150592
			 0.852136  0.402444 -0.334520
			 0.777891  0.459424 -0.428737
			 0.665588  0.380345 -0.642130
			 0.572744  0.302375 -0.761927
			 0.782177  0.592116  0.193904
			 0.716818  0.625683  0.307723
			 0.851444  0.524406 -0.006444
			 0.613342  0.436017 -0.658559
			 0.534277  0.156464 -0.830703
			 0.540352  0.452624 -0.709332
			 0.641197  0.597017 -0.482117
			 0.584169  0.403479 -0.704238
			 0.574897  0.056093 -0.816300
			 0.484549 -0.165782 -0.858911
			 0.391915 -0.392393 -0.832124
			 0.558149 -0.323258 -0.764182
			 0.495462 -0.270262 -0.825516
			 0.458381 -0.394370 -0.796467
			 0.280099 -0.560194 -0.779569
			 0.561104 -0.457905 -0.689554
			 0.425453 -0.447360 -0.786676
			 0.444288 -0.441813 -0.779365
			 0.820995 -0.295254 -0.488663
			-0.431181 -0.782504 -0.449189
			-0.034738 -0.720028 -0.693075
			 0.160065 -0.679385 -0.716111
			-0.068306 -0.758274 -0.648348
			-0.245549 -0.772683 -0.585377
			 0.306696 -0.557014 -0.771799
			 0.316610 -0.576776 -0.753052
			-0.728847 -0.485674 -0.482600
			-0.774465 -0.533759 -0.339565
			-0.665237 -0.631865 -0.397752
			-0.690631 -0.612367 -0.384753
			-0.766305 -0.601758 -0.225085
			-0.633332 -0.682805 -0.364236
			-0.646148 -0.686735 -0.332999
			-0.616908 -0.723733 -0.309247
			-0.852023 -0.259451 -0.454689
			-0.846699 -0.347363 -0.403039
			-0.945060 -0.301036 -0.127434
			-0.867375 -0.424145 -0.260310
			-0.653347  0.266155  0.708731
			-0.722496  0.116907  0.681419
			-0.866601 -0.084680  0.491765
			-0.926915 -0.187768  0.324919
			-0.956153 -0.234358  0.175638
			-0.449720  0.375933  0.810201
			-0.540667  0.313608  0.780596
			-0.277894  0.494331  0.823658
			-0.419120  0.420696  0.804583
			 0.551876  0.633634  0.542162
			 0.492159  0.690896  0.529568
			 0.375082  0.722842  0.580357
			 0.177542  0.764271  0.619974
			 0.010305  0.652137  0.758031
			-0.067741  0.590807  0.803964
			-0.168258  0.566349  0.806808
			 0.712797  0.588816  0.381072
			 0.655431  0.621840  0.428633
			 0.629981  0.602862  0.489573
			 0.608372  0.650701  0.454392
			 0.863116  0.501161 -0.062191
			 0.841490  0.521796 -0.140085
			 0.785347  0.539505 -0.303588
			 0.696526  0.428424 -0.575590
			 0.660111  0.404762 -0.632789
			 0.723885  0.609243  0.323749
			 0.807822  0.560317  0.182944
			 0.714257  0.569191 -0.407256
			 0.730040  0.518359 -0.445360
			 0.722626  0.350228 -0.595946
			 0.630877  0.358098 -0.688302
			 0.702301  0.212865 -0.679309
			 0.708766  0.688975 -0.151538
			 0.666356  0.671225 -0.324694
			 0.670684  0.480437 -0.565123
			 0.742400  0.199199 -0.639658
			 0.687885  0.024093 -0.725419
			 0.544017 -0.058748 -0.837015
			 0.581360 -0.172328 -0.795188
			 0.476462 -0.337554 -0.811814
			 0.859012 -0.198541 -0.471890
			 0.868102 -0.198599 -0.454926
			 0.526162 -0.306249 -0.793325
			 0.541418 -0.382047 -0.748937
			 0.670264 -0.275758 -0.688988
			 0.406479 -0.504907 -0.761475
			 0.914935 -0.212806 -0.342940
			 0.912296 -0.198334 -0.358302
			-0.617019 -0.754542 -0.223502
			-0.262281 -0.806481 -0.529902
			-0.555866 -0.782149 -0.281523
			-0.007925 -0.764034 -0.645127
			 0.352811 -0.569219 -0.742640
			 0.297504 -0.618930 -0.726923
			 0.202346 -0.722675 -0.660906
			-0.077860 -0.852991 -0.516086
			 0.387615 -0.508002 -0.769213
			 0.574361 -0.420208 -0.702520
			 0.477633 -0.489447 -0.729594
			-0.827152 -0.475706 -0.299205
			-0.917005 -0.397930 -0.027464
			-0.889789 -0.440101 -0.120774
			-0.830813 -0.525683 -0.182774
			-0.766711 -0.621329 -0.161569
			-0.869125 -0.492515  0.045284
			-0.727380 -0.658595 -0.192798
			-0.747399 -0.657780 -0.093383
			-0.941575 -0.336762 -0.005243
			-0.619476  0.231674  0.750051
			-0.848493 -0.013591  0.529032
			-0.613802  0.211924  0.760484
			-0.732560  0.073901  0.676679
			-0.888493 -0.192500  0.416563
			-0.944418 -0.273465  0.182461
			-0.918047 -0.332987  0.215196
			-0.522959  0.271655  0.807909
			-0.411143  0.405341  0.816493
			-0.338658  0.429237  0.837297
			 0.588251  0.666199  0.458410
			 0.610477  0.661344  0.435823
			 0.881595  0.405283  0.241943
			 0.343263  0.776613  0.528245
			 0.210457  0.765886  0.607558
			 0.228688  0.819345  0.525714
			 0.153125  0.683743  0.713476
			-0.058197  0.597171  0.800000
			-0.220703  0.487560  0.844734
			 0.756459  0.613487  0.226724
			 0.693671  0.632717  0.344223
			 0.726820  0.602339  0.330032
			 0.814898  0.579563 -0.006884
			 0.781701  0.614251 -0.107885
			 0.746570  0.632091 -0.207591
			 0.729741  0.447448 -0.516980
			 0.763826  0.266779 -0.587707
			 0.786153  0.441033 -0.432959
			 0.780271  0.533678 -0.326138
			 0.685395  0.727687 -0.026563
			 0.664404  0.746985  0.024104
			 0.710618  0.701791  0.050111
			 0.745009  0.663713  0.066681
			 0.720773  0.628692 -0.291945
			 0.793921  0.160849 -0.586359
			 0.657087 -0.170424 -0.734297
			 0.716857 -0.042114 -0.695947
			 0.642726 -0.267258 -0.717967
			 0.928659 -0.144407 -0.341672
			 0.560533 -0.392356 -0.729287
			 0.675256 -0.205714 -0.708316
			 0.591553 -0.249013 -0.766849
			 0.467316 -0.432489 -0.771083
			 0.494533 -0.426504 -0.757319
			 0.552065 -0.301742 -0.777288
			-0.677628 -0.713435 -0.178415
			-0.349940 -0.844179 -0.406083
			-0.715820 -0.693582 -0.080897
			-0.489675 -0.838660 -0.238472
			-0.608947 -0.776619 -0.161391
			 0.347993 -0.548300 -0.760439
			 0.391459 -0.619460 -0.680462
			 0.217352 -0.791222 -0.571599
			 0.383647 -0.671951 -0.633480
			 0.112036 -0.855378 -0.505743
			-0.281691 -0.892336 -0.352685
			-0.135480 -0.856710 -0.497688
			 0.678299 -0.315539 -0.663585
			 0.591243 -0.448396 -0.670353
			 0.520478 -0.507082 -0.687002
			 0.574671 -0.474276 -0.666945
			 0.476957 -0.579904 -0.660472
			-0.907325 -0.419003  0.034625
			-0.859299 -0.510168  0.036524
			-0.897300 -0.393100  0.200809
			-0.899102 -0.418657  0.127838
			-0.846729 -0.524369  0.089934
			-0.823965 -0.565696  0.032697
			-0.784256 -0.087365  0.614255
			-0.751370 -0.059566  0.657188
			-0.629373  0.119026  0.767934
			-0.885913 -0.324957  0.330999
			-0.902404 -0.390776  0.181553
			-0.840350 -0.153509  0.519853
			-0.491529  0.234304  0.838750
			-0.359456  0.352836  0.863886
			 0.925711  0.326607  0.190752
			 0.499291  0.744470  0.443252
			 0.893256  0.399288  0.206550
			 0.362033  0.770649  0.524435
			 0.377162  0.711003  0.593484
			 0.299136  0.692913  0.656041
			 0.116318  0.691018  0.713417
			 0.127350  0.660937  0.739557
			-0.037029  0.547479  0.836000
			-0.253747  0.399901  0.880734
			 0.708798  0.653404  0.265834
			 0.680720  0.670041  0.296082
			 0.635919  0.702764  0.318950
			 0.822331  0.403916 -0.400778
			 0.818856  0.363059 -0.444593
			 0.810754  0.336298 -0.479147
			 0.804268  0.567273 -0.177070
			 0.732944  0.678588 -0.048077
			 0.637260  0.743681  0.202084
			 0.664026  0.732388  0.150589
			 0.671436  0.711799  0.206196
			 0.851841  0.319703 -0.414918
			 0.771712  0.088997 -0.629715
			 0.798010  0.188736 -0.572328
			 0.715438 -0.058793 -0.696198
			 0.792156 -0.058067 -0.607550
			 0.824787  0.093085 -0.557728
			 0.844994  0.076257 -0.529311
			-0.806498 -0.583383  0.096048
			-0.815529 -0.547677  0.186982
			-0.773505 -0.617195  0.144085
			-0.725716 -0.685554  0.057884
			-0.604600 -0.782783 -0.147340
			-0.644915 -0.759340 -0.086535
			-0.593474 -0.784901 -0.178099
			-0.282528 -0.859938 -0.425069
			-0.390110 -0.872119 -0.295336
			-0.614446 -0.787830 -0.042182
			-0.553280 -0.828607 -0.085388
			-0.515940 -0.841785 -0.158760
			 0.505917 -0.569587 -0.647779
			 0.352794 -0.718869 -0.598969
			 0.280515 -0.757455 -0.589553
			 0.452565 -0.595980 -0.663319
			 0.521321 -0.560004 -0.643910
			 0.450403 -0.625250 -0.637338
			-0.013287 -0.836182 -0.548292