<?xml version="1.0"?>
<VTKFile type="PolyData" version="0.1" byte_order="LittleEndian" compressor="vtkZLibDataCompressor">
	<PolyData>
		<Piece NumberOfPoints="2270" NumberOfVerts="0" NumberOfLines="0" NumberOfStrips="0" NumberOfPolys="4536">
		<PointData Normals="Normals">
		<DataArray type="Float32" Name="Normals" NumberOfComponents="3" format="ascii">
			-0.330983 -0.321844  0.887055
			-0.501860 -0.390266  0.771899
			-0.573737 -0.453985  0.681707
			-0.534013 -0.419187  0.734243
			-0.343091 -0.247990  0.905974
			-0.289620 -0.363536  0.885416
			-0.109261 -0.270098  0.956613
			-0.216672 -0.201828  0.955154
			-0.665202 -0.517642  0.538101
			-0.574826 -0.391425  0.718583
			-0.711399 -0.576425  0.402052
			-0.708634 -0.554378  0.436466
			-0.561087 -0.557115  0.612213
			-0.417359 -0.448793  0.790188
			-0.634516 -0.315870  0.705419
			-0.405643 -0.208392  0.889958
			-0.222127 -0.144808  0.964205
			-0.105016 -0.155141  0.982295
			-0.146208 -0.126316  0.981156
			-0.135037 -0.389531  0.911060
			 0.053283 -0.226935  0.972451
			-0.734037 -0.665826  0.133662
			-0.761022 -0.450144  0.467136
			-0.757727 -0.577375  0.304117
			-0.680886 -0.388492  0.620861
			-0.752473 -0.634722  0.175820
			-0.733363 -0.671910  0.103519
			-0.664927 -0.699850  0.260927
			-0.474613 -0.707846  0.523160
			-0.369285 -0.523053  0.768143
			-0.601033 -0.210940  0.770885
			-0.843810 -0.283506  0.455641
			-0.782380 -0.265205  0.563514
			-0.290441 -0.041481  0.955993
			-0.471274 -0.079781  0.878371
			-0.231855 -0.047459  0.971592
			-0.125199 -0.133769  0.983072
			-0.041264 -0.177467  0.983261
			-0.041157 -0.386356  0.921431
			 0.082516 -0.214845  0.973156
			-0.300570 -0.602584  0.739290
			-0.106650 -0.514447  0.850865
			 0.057653 -0.131776  0.989602
			 0.292627 -0.085217  0.952422
			-0.757053 -0.652961 -0.022649
			-0.746945 -0.612713 -0.258179
			-0.711618 -0.683514 -0.162506
			-0.823376 -0.550923  0.136144
			-0.852435 -0.499090  0.155772
			-0.836673 -0.512336  0.193624
			-0.867832 -0.430266  0.248473
			-0.603931 -0.795447 -0.050312
			-0.548592 -0.823448  0.144847
			-0.440249 -0.782511  0.440293
			-0.754810 -0.124089  0.644100
			-0.903324 -0.407972  0.132529
			-0.909994 -0.341702  0.234843
			-0.876204 -0.169236  0.451250
			-0.835445 -0.016079  0.549339
			-0.881024 -0.219837  0.418889
			-0.398767  0.020489  0.916823
			-0.291359  0.117334  0.949391
			-0.615620  0.008223  0.788000
			-0.305997  0.183315  0.934217
			-0.206348 -0.000558  0.978479
			-0.315049  0.068940  0.946568
			-0.136363 -0.091008  0.986470
			 0.053923 -0.243339  0.968441
			-0.028236 -0.571424  0.820169
			 0.045781 -0.545622  0.836780
			-0.050082 -0.463611  0.884622
			 0.262906 -0.094402  0.960192
			-0.256853 -0.696662  0.669841
			 0.083060  0.032025  0.996030
			 0.289541 -0.014193  0.957060
			 0.224643  0.014780  0.974329
			 0.376254 -0.012929  0.926426
			 0.464415 -0.067163  0.883068
			 0.499374 -0.057440  0.864481
			 0.451116 -0.036862  0.891704
			-0.818291 -0.566624 -0.096626
			-0.671140 -0.630515 -0.389900
			-0.843326 -0.523033 -0.123439
			-0.776224 -0.569746 -0.269935
			-0.732311 -0.570773 -0.371401
			-0.688165 -0.589078 -0.423575
			-0.654391 -0.650450 -0.385600
			-0.636230 -0.700188 -0.323956
			-0.586546 -0.803349 -0.102922
			-0.581636 -0.806864  0.103293
			-0.480739 -0.797029  0.365561
			-0.884597  0.003252  0.466345
			-0.747209  0.064593  0.661443
			-0.919075 -0.393817  0.014489
			-0.940068 -0.278535  0.196698
			-0.916324  0.010660  0.400297
			-0.810230  0.232032  0.538227
			-0.874387 -0.044019  0.483228
			-0.872288  0.260251  0.413984
			-0.578804  0.147585  0.802000
			-0.442403  0.314291  0.839941
			-0.401509  0.342816  0.849275
			-0.465753  0.338325  0.817686
			-0.281498  0.262504  0.922958
			-0.175533  0.129249  0.975952
			-0.046884  0.052379  0.997526
			 0.054125 -0.387028  0.920478
			 0.277087 -0.188441  0.942185
			-0.100471 -0.705985  0.701064
			-0.028705 -0.669640  0.742131
			-0.013961 -0.573820  0.818862
			-0.076477 -0.551220  0.830848
			 0.414223 -0.101774  0.904467
			-0.365806 -0.841174  0.398263
			 0.288311  0.088735  0.953417
			 0.117278  0.114514  0.986475
			 0.322608  0.002666  0.946529
			 0.491954 -0.069768  0.867821
			 0.376592 -0.074846  0.923351
			 0.427022 -0.123354  0.895788
			 0.531512 -0.144093  0.834705
			 0.530861 -0.170135  0.830205
			 0.557842 -0.060218  0.827760
			 0.488767 -0.127623  0.863029
			-0.634767 -0.605805 -0.479657
			-0.793482 -0.528088 -0.302506
			-0.891759 -0.440449 -0.103780
			-0.692363 -0.510889 -0.509535
			-0.670530 -0.736763 -0.087004
			-0.598873 -0.787247 -0.146943
			-0.662811 -0.579087 -0.474699
			-0.646743 -0.657549 -0.386462
			-0.574612 -0.810625  0.112727
			-0.944934  0.158452  0.286344
			-0.838838  0.183647  0.512469
			-0.939372 -0.339012  0.051492
			-0.926221 -0.056649  0.372700
			-0.811515  0.319810  0.489045
			-0.905364  0.137334  0.401815
			-0.791182  0.418227  0.446226
			-0.901032  0.332246  0.278845
			-0.796960  0.480834  0.365587
			-0.722339  0.348575  0.597262
			-0.525663  0.388337  0.756884
			-0.605259  0.413282  0.680338
			-0.700548  0.427959  0.571038
			-0.634215  0.452328  0.627033
			-0.284796  0.424069  0.859684
			-0.059104  0.203009  0.977391
			 0.297567 -0.324518  0.897854
			 0.070129 -0.507522  0.858780
			-0.241890 -0.850970  0.466196
			-0.203997 -0.855399  0.476107
			-0.301231 -0.871960  0.385935
			-0.191336 -0.800257  0.568313
			-0.072378 -0.633562  0.770299
			 0.104176 -0.520027  0.847773
			 0.147052 -0.548278  0.823266
			 0.175645 -0.546606  0.818762
			 0.098308 -0.516193  0.850812
			-0.485990 -0.869925  0.083929
			 0.241491  0.063688  0.968311
			 0.169011  0.201400  0.964818
			 0.293711 -0.100908  0.950553
			 0.481867 -0.114663  0.868710
			 0.527120 -0.123806  0.840724
			 0.525559 -0.167555  0.834094
			 0.428101 -0.184311  0.884737
			 0.629617 -0.231897  0.741489
			 0.601500 -0.166807  0.781264
			 0.601287 -0.191362  0.775780
			 0.403346 -0.346322  0.846979
			-0.664769 -0.534770 -0.521636
			-0.869739 -0.446468 -0.210287
			-0.780091 -0.338339 -0.526293
			-0.528864 -0.401299 -0.747838
			 0.380822 -0.570945 -0.727322
			-0.550987 -0.820187 -0.153970
			-0.609501 -0.738258 -0.288936
			-0.670489 -0.428789 -0.605461
			-0.720757 -0.504666 -0.475207
			-0.766175 -0.551123 -0.330513
			-0.728214 -0.539163 -0.423093
			-0.684875 -0.611588 -0.396114
			-0.652675 -0.610398 -0.448810
			-0.695466 -0.600514 -0.394600
			-0.495342 -0.599814 -0.628378
			-0.934748 -0.334640 -0.119424
			-0.972353 -0.129618  0.194239
			-0.958593  0.161860  0.234308
			-0.895111  0.342106  0.285900
			-0.993059 -0.103414  0.056021
			-0.921792  0.367152  0.124493
			-0.892825  0.394509  0.217316
			-0.819105  0.448481  0.357676
			-0.800487  0.461092  0.382902
			-0.678621  0.545997  0.491285
			-0.733513  0.493587  0.467258
			-0.806580  0.470065  0.358425
			-0.780747  0.507777  0.364138
			-0.588257  0.523954  0.615976
			-0.053786  0.295110  0.953948
			 0.038206  0.279980  0.959245
			-0.241239  0.521690  0.818318
			-0.482533  0.564895  0.669369
			-0.093678  0.369088  0.924661
			 0.013364  0.402644  0.915259
			-0.398400 -0.891779  0.214493
			-0.399852 -0.886637  0.232363
			-0.302213 -0.796251  0.524073
			-0.523310 -0.846745  0.095757
			-0.093962 -0.581204  0.808315
			 0.158419 -0.479290  0.863241
			 0.422361 -0.387901  0.819234
			 0.377217 -0.398015  0.836236
			 0.438726 -0.387660  0.810703
			 0.422854 -0.392381  0.816843
			-0.558437 -0.826203 -0.074409
			 0.219605 -0.100629  0.970385
			 0.182287  0.167810  0.968819
			 0.146951 -0.089920  0.985048
			 0.144045  0.171940  0.974519
			 0.205195 -0.172429  0.963412
			 0.283336 -0.261344  0.922724
			 0.493917 -0.274563  0.825022
			 0.449026 -0.329648  0.830487
			 0.707441 -0.199445  0.678048
			 0.760832 -0.287752  0.581664
			 0.599700 -0.358977  0.715189
			 0.717934 -0.349748  0.601870
			 0.586847 -0.239602  0.773434
			 0.677759 -0.180334  0.712827
			 0.554468 -0.260742  0.790303
			-0.866620 -0.359623 -0.345892
			-0.699698 -0.318827 -0.639353
			-0.865317 -0.183137 -0.466569
			-0.656869 -0.316887 -0.684183
			-0.817869 -0.050423 -0.573191
			-0.826066 -0.107480 -0.553229
			 0.747012 -0.304326 -0.591065
			 0.353606 -0.541831 -0.762484
			-0.667720 -0.722131 -0.180769
			-0.692923 -0.447840 -0.565064
			-0.679056 -0.423735 -0.599443
			-0.727734 -0.302644 -0.615475
			-0.717801 -0.275099 -0.639596
			-0.824800 -0.441348 -0.353435
			-0.825412 -0.527620 -0.200779
			-0.824538 -0.505096 -0.254981
			-0.764918 -0.566718 -0.306156
			-0.726798 -0.588463 -0.354225
			-0.842012 -0.510060 -0.175656
			-0.919764 -0.263377 -0.290976
			-0.980744 -0.044184 -0.190234
			-0.980678  0.188914 -0.050811
			-0.954374  0.279747 -0.104459
			-0.934825  0.337422  0.110674
			-0.968205  0.211978 -0.132835
			-0.951823  0.299734 -0.064751
			-0.891487  0.402416  0.208119
			-0.680642  0.479551  0.553856
			-0.613254  0.458883  0.642920
			-0.732446  0.531729  0.425191
			-0.810182  0.535512  0.238395
			-0.873779  0.455241  0.171076
			-0.932059  0.362145 -0.010804
			-0.796649  0.562549  0.221109
			-0.690285  0.572906  0.441911
			 0.104148  0.309716  0.945108
			 0.077611  0.254884  0.963852
			-0.471113  0.601240  0.645416
			-0.075176  0.462975  0.883178
			-0.246585  0.575695  0.779597
			-0.435032  0.648698  0.624450
			-0.682244  0.624217  0.380653
			 0.095249  0.323999  0.941250
			 0.057732  0.320796  0.945387
			 0.002463  0.479942  0.877297
			-0.496073 -0.868145  0.015375
			-0.455317 -0.824707  0.335478
			-0.054117 -0.658898  0.750283
			-0.240635 -0.752759  0.612739
			-0.699587 -0.706638 -0.106022
			-0.576349 -0.814551  0.065791
			 0.066027 -0.606450  0.792375
			 0.232007 -0.529235  0.816139
			 0.457326 -0.396238  0.796146
			 0.584049 -0.294712  0.756327
			 0.619842 -0.238145  0.747718
			 0.637974 -0.350081  0.685881
			 0.079964 -0.109785  0.990734
			 0.030324  0.087424  0.995710
			 0.058120 -0.061693  0.996402
			 0.116059 -0.207794  0.971263
			 0.312253 -0.286122  0.905888
			 0.145592 -0.235794  0.960835
			 0.195769 -0.244954  0.949564
			 0.296816 -0.344396  0.890670
			 0.363000 -0.298765  0.882593
			 0.533291 -0.377339  0.757111
			 0.448195 -0.324446  0.832980
			 0.562690 -0.415145  0.714866
			 0.773318 -0.235377  0.588708
			 0.842289 -0.332582  0.424192
			 0.724425 -0.394354  0.565415
			 0.670456 -0.468063  0.575678
			 0.788303 -0.393998  0.472592
			 0.762249 -0.234012  0.603502
			-0.926003  0.024406 -0.376726
			-0.712220 -0.206018 -0.671044
			-0.738440 -0.078389 -0.669747
			-0.895128  0.050570 -0.442932
			-0.884559  0.154623 -0.440054
			-0.805734  0.111236 -0.581738
			-0.899614  0.136071 -0.414945
			-0.778530 -0.309346 -0.546074
			-0.754954 -0.235673 -0.611966
			-0.739229 -0.128041 -0.661171
			-0.861954 -0.374145 -0.342128
			-0.876789 -0.458305 -0.145594
			-0.876876 -0.408739 -0.253024
			-0.809055 -0.471814 -0.350459
			-0.814805 -0.457078 -0.356614
			-0.721345 -0.681863 -0.121346
			-0.785686 -0.554733 -0.273803
			-0.836468 -0.518469 -0.177514
			-0.807095 -0.531639 -0.256822
			-0.828079 -0.504267 -0.244950
			-0.808466 -0.571868 -0.139104
			-0.953633  0.122444 -0.274938
			-0.951283  0.175432 -0.253542
			-0.934524  0.279418 -0.220433
			-0.852496  0.482400  0.201347
			-0.688582  0.543003  0.480627
			-0.710059  0.537625  0.454726
			-0.761863  0.609130  0.220283
			-0.702411  0.555525  0.444984
			-0.894326  0.394970 -0.210188
			-0.904745  0.401076 -0.143441
			-0.872358  0.354991 -0.336114
			-0.877240  0.228212 -0.422337
			-0.866770  0.224718 -0.445210
			-0.069898  0.277042  0.958312
			-0.636248  0.656537  0.405152
			-0.129883  0.528443  0.838975
			-0.371270  0.737998  0.563487
			-0.157122  0.630264  0.760315
			-0.618267  0.701052  0.355347
			 0.064252  0.316115  0.946543
			-0.032612  0.330122  0.943375
			-0.041313  0.324431  0.945007
			-0.100344  0.489870  0.866002
			-0.063840  0.356688  0.932040
			-0.159566  0.701673  0.694402
			-0.421259 -0.903659  0.077087
			-0.386015 -0.884042  0.263556
			-0.328104 -0.787458  0.521784
			 0.078243 -0.735609  0.672872
			 0.318032 -0.600315  0.733811
			-0.162628 -0.861410  0.481170
			-0.582647 -0.812722  0.002431
			 0.532727 -0.484850  0.693630
			 0.629612 -0.498465  0.595920
			 0.808114 -0.324042  0.491883
			-0.068804  0.180544  0.981157
			-0.103667  0.248875  0.962972
			 0.000809 -0.053542  0.998565
			 0.066947 -0.236454  0.969333
			 0.396580 -0.455363  0.797100
			 0.203462 -0.367888  0.907338
			 0.515110 -0.508159  0.690244
			 0.868055 -0.267676  0.418126
			 0.918677 -0.316777  0.235978
			 0.884240 -0.379240  0.272574
			 0.773142 -0.492372  0.399776
			 0.621657 -0.573261  0.533774
			 0.885026 -0.248815  0.393473
			 0.864321 -0.238299  0.442902
			-0.761352 -0.184689 -0.621476
			-0.667402  0.008836 -0.744646
			-0.729037 -0.072244 -0.680651
			-0.823066  0.164369 -0.543641
			-0.685700  0.064057 -0.725061
			 0.965356 -0.080956 -0.248060
			 0.775815 -0.038081 -0.629810
			-0.834169 -0.118675 -0.538589
			-0.620660 -0.142179 -0.771081
			-0.799353 -0.299102 -0.521127
			-0.786156 -0.222246 -0.576685
			-0.756201 -0.021658 -0.653980
			-0.581759  0.010820 -0.813289
			-0.739691 -0.118163 -0.662491
			-0.761275 -0.058122 -0.645819
			-0.769008 -0.000110 -0.639239
			-0.770718 -0.476650 -0.422845
			-0.740689 -0.493107 -0.456317
			-0.719981 -0.497030 -0.484343
			-0.752511 -0.480598 -0.450280
			-0.710181 -0.443344 -0.546891
			-0.552795 -0.824184 -0.123036
			-0.596669 -0.802281 -0.018208
			-0.857577 -0.502993 -0.107514
			-0.756166 -0.648932 -0.084258
			-0.870343 -0.483726 -0.092258
			-0.737618 -0.554473 -0.385329
			-0.891107 -0.434626 -0.130495
			-0.754398 -0.537789 -0.376386
			-0.866756  0.493132  0.074536
			-0.615767  0.636273  0.464745
			-0.744282  0.495483  0.447819
			-0.856623  0.491961  0.155472
			-0.903124  0.255062 -0.345414
			-0.521984  0.739228  0.425529
			-0.327353  0.766116  0.553089
			-0.157134  0.357407  0.920635
			-0.254725  0.501709  0.826682
			-0.272217  0.680769  0.680038
			-0.306693  0.338522  0.889574
			-0.185285  0.336234  0.923372
			-0.204454  0.294936  0.933387
			-0.236917  0.170528  0.956447
			-0.533153 -0.841680  0.085571
			-0.222100 -0.963981  0.146329
			-0.484632 -0.853132  0.193125
			-0.264893 -0.904852  0.333279
			-0.212193 -0.900647  0.379223
			 0.451565 -0.616164  0.645315
			 0.172921 -0.778004  0.603993
			 0.082501 -0.845564  0.527461
			 0.398779 -0.653958  0.642895
			 0.393866 -0.662275  0.637387
			 0.715042 -0.480042  0.508207
			 0.838594 -0.444528  0.314888
			 0.901148 -0.300059  0.312884
			-0.247849  0.337555  0.908090
			-0.163359  0.196749  0.966749
			-0.071722 -0.037037  0.996737
			-0.013118 -0.301151  0.953486
			-0.138262 -0.081162  0.987065
			 0.229745 -0.486929  0.842685
			 0.464299 -0.616245  0.636136
			 0.394837 -0.668741  0.629991
			 0.304756 -0.539529  0.784877
			 0.083231 -0.430242  0.898868
			 0.933290 -0.302156  0.194092
			 0.926603 -0.376041 -0.000546
			 0.847370 -0.487252  0.211067
			 0.702977 -0.610774  0.364389
			 0.765596 -0.576609  0.285280
			 0.631340 -0.693032  0.348018
			 0.526016 -0.662470  0.533330
			 0.926883 -0.260524  0.270212
			 0.757261  0.050997 -0.651118
			 0.960167 -0.011908 -0.279173
			-0.826666  0.101629 -0.553440
			 0.013650  0.074814 -0.997104
			-0.654916  0.044162 -0.754410
			 0.334034 -0.112671 -0.935803
			-0.685702 -0.024221 -0.727479
			-0.705532 -0.097053 -0.702001
			-0.691500 -0.341922 -0.636332
			-0.743229 -0.247145 -0.621715
			-0.656562 -0.016837 -0.754084
			-0.789076 -0.030733 -0.613527
			-0.766093 -0.054618 -0.640405
			-0.744975 -0.047909 -0.665370
			-0.692254  0.018911 -0.721406
			-0.749724  0.043505 -0.660319
			-0.800443 -0.034326 -0.598426
			-0.674639 -0.406155 -0.616360
			-0.778025 -0.307533 -0.547813
			-0.725224 -0.519642 -0.451688
			-0.445527 -0.869475 -0.213351
			-0.358337 -0.855451 -0.373895
			-0.584500 -0.765864 -0.267979
			-0.637504 -0.769303  0.041969
			-0.485671 -0.857183 -0.171352
			-0.765857 -0.621941 -0.163258
			-0.863790 -0.498541 -0.072960
			-0.598868 -0.650625 -0.466951
			-0.782267 -0.508473 -0.359880
			-0.606226 -0.593477 -0.529410
			-0.511345 -0.690983 -0.510949
			-0.832738 -0.518153 -0.195103
			-0.918426  0.381450 -0.104836
			-0.635133  0.555214  0.536976
			-0.614344  0.537922  0.577253
			-0.522458  0.567203  0.636646
			-0.458826  0.617626  0.638762
			-0.868728  0.443192  0.221116
			-0.922026  0.387123  0.001988
			-0.768897  0.501116  0.397089
			-0.909862  0.389805 -0.142136
			-0.905125  0.288139 -0.312611
			-0.843492  0.146321 -0.516828
			-0.277998  0.338512  0.898959
			-0.447498  0.522347  0.725879
			-0.418832  0.583683  0.695625
			-0.503563  0.227799  0.833386
			-0.323744  0.081383  0.942638
			-0.340575  0.159931  0.926515
			-0.316363  0.385175  0.866923
			-0.413911  0.294559  0.861344
			-0.439871  0.098709  0.892620
			-0.370884 -0.176724  0.911709
			-0.441548 -0.114944  0.889844
			-0.581085 -0.790127  0.195037
			-0.009261 -0.805064  0.593115
			-0.240388 -0.801058  0.548197
			-0.357466 -0.814080  0.457703
			 0.255234 -0.705660  0.660984
			 0.473801 -0.678808  0.561010
			 0.785372 -0.527280  0.324294
			 0.876203 -0.430589  0.216475
			 0.864328 -0.502476 -0.021340
			 0.892360 -0.427385  0.145038
			-0.216959  0.168618  0.961507
			-0.013577 -0.318643  0.947778
			-0.120541 -0.141472  0.982576
			-0.277166  0.161297  0.947186
			-0.278658  0.061071  0.958447
			 0.200071 -0.534859  0.820913
			 0.485881 -0.664503  0.567764
			 0.277792 -0.609635  0.742413
			 0.400385 -0.735393  0.546707
			 0.489120 -0.715196  0.499256
			 0.361030 -0.724122  0.587626
			 0.307784 -0.665783  0.679707
			 0.018256 -0.422155  0.906340
			 0.101901 -0.537729  0.836937
			 0.852815 -0.449885 -0.265161
			 0.863898 -0.421719 -0.275378
			 0.883232 -0.457803 -0.101579
			 0.893629 -0.447047  0.039711
			 0.868427 -0.479577  0.125858
			 0.828616 -0.548733  0.110849
			 0.805858 -0.546665  0.227489
			 0.793401 -0.595211  0.127433
			 0.716503 -0.612260  0.334306
			 0.751125 -0.615835  0.237819
			 0.583280 -0.717521  0.380720
			 0.613630 -0.737725  0.281461
			 0.624721 -0.591860  0.509338
			 0.607562 -0.749548  0.262768
			-0.680744  0.021051 -0.732219
			 0.749406  0.036537 -0.661102
			 0.954347 -0.005676 -0.298648
			-0.739222 -0.088890 -0.667570
			 0.959550  0.003345 -0.281517
			 0.747039 -0.030438 -0.664083
			-0.738478 -0.269295 -0.618166
			-0.779029 -0.126146 -0.614167
			-0.761626 -0.140118 -0.632687
			 0.328243 -0.106737 -0.938543
			-0.730142 -0.056178 -0.680982
			-0.796565 -0.036785 -0.603433
			-0.744471 -0.058568 -0.665081
			 0.320740 -0.165159 -0.932657
			-0.895996  0.152272 -0.417139
			-0.932333  0.109582 -0.344598
			-0.776459  0.021457 -0.629802
			-0.874160  0.013351 -0.485454
			-0.720521 -0.191466 -0.666476
			-0.756965 -0.117100 -0.642877
			-0.763919 -0.134412 -0.631159
			-0.760604 -0.069369 -0.645499
			-0.846710 -0.015593 -0.531827
			-0.740020 -0.279110 -0.611937
			-0.648465 -0.277646 -0.708806
			-0.700842 -0.316351 -0.639330
			-0.726675 -0.434599 -0.532041
			-0.781530 -0.469321 -0.411033
			-0.599258 -0.585756 -0.545692
			-0.491702 -0.656532 -0.572009
			-0.210539 -0.908625 -0.360658
			-0.201587 -0.932026 -0.301146
			-0.152074 -0.849248 -0.505620
			-0.200478 -0.896443 -0.395220
			-0.527145 -0.718188 -0.454230
			-0.354127 -0.764152 -0.539135
			-0.452524 -0.886880 -0.093088
			-0.149914 -0.957717 -0.245567
			-0.722915 -0.611742 -0.321192
			-0.300679 -0.762312 -0.573125
			-0.677200 -0.592726 -0.435978
			-0.495915 -0.670431 -0.551897
			-0.373919 -0.709709 -0.597075
			-0.248230 -0.733428 -0.632824
			-0.732614  0.537124  0.418061
			-0.808234  0.524144  0.268386
			-0.755177  0.449083  0.477527
			-0.635716  0.501521  0.586807
			-0.539798  0.502061  0.675687
			-0.473848  0.454861  0.754036
			-0.562419  0.471078  0.679537
			-0.930746  0.339835 -0.134995
			-0.904598  0.411186  0.112375
			-0.928599  0.207873 -0.307396
			-0.912041  0.266942 -0.311323
			-0.364212  0.349519  0.863242
			-0.563489  0.384151  0.731374
			-0.596058  0.360403  0.717513
			-0.624464  0.210808  0.752067
			-0.542623  0.054643  0.838197
			-0.482503 -0.174779  0.858279
			-0.366564  0.013861  0.930290
			-0.440126  0.414468  0.796558
			-0.482812  0.333094  0.809902
			-0.465442  0.071896  0.882154
			-0.542034  0.238611  0.805769
			-0.562141 -0.166822  0.810042
			-0.534336 -0.283912  0.796165
			-0.366014 -0.926033  0.092174
			-0.012568 -0.774877  0.631987
			-0.190340 -0.923971  0.331736
			 0.030147 -0.828105  0.559762
			 0.229065 -0.910352  0.344656
			 0.613079 -0.746289  0.259204
			 0.823732 -0.566970 -0.003155
			 0.814611 -0.536700 -0.219913
			-0.042323 -0.186824  0.981481
			-0.070264 -0.204587  0.976323
			-0.019636 -0.454292  0.890636
			-0.124905 -0.306686  0.943580
			-0.309162  0.105742  0.945113
			-0.406084  0.299532  0.863352
			 0.220748 -0.648158  0.728809
			 0.431383 -0.760718  0.484991
			 0.532664 -0.755361  0.381706
			 0.310757 -0.762356  0.567664
			 0.380553 -0.754832  0.534235
			 0.269060 -0.729245  0.629134
			 0.193495 -0.606720  0.771006
			 0.093709 -0.528163  0.843956
			 0.794697 -0.500561 -0.343358
			 0.751782 -0.515413 -0.411306
			 0.694521 -0.574700 -0.432852
			 0.726540 -0.540260 -0.424569
			 0.851633 -0.424986 -0.306772
			 0.806462 -0.534076 -0.253736
			 0.836379 -0.456808 -0.302980
			 0.839893 -0.537659 -0.074179
			 0.849241 -0.524799  0.058091
			 0.777910 -0.628347 -0.005983
			 0.767522 -0.626034  0.137806
			 0.676998 -0.589751  0.440303
			 0.575057 -0.772077  0.270567
			 0.595500 -0.744142  0.302709
			 0.604210 -0.760319  0.238424
			 0.593009 -0.695957  0.404949
			 0.642767 -0.749057  0.160514
			-0.611094 -0.080396 -0.787464
			-0.760428 -0.143077 -0.633466
			-0.731807 -0.051614 -0.679554
			-0.733683 -0.093905 -0.672971
			-0.785492 -0.026971 -0.618284
			-0.803355  0.023455 -0.595038
			-0.929404  0.298556 -0.216961
			-0.925212  0.235604 -0.297445
			-0.962407  0.270325 -0.026399
			-0.966928  0.212553 -0.140970
			-0.934583  0.331124 -0.130043
			-0.929057  0.057872 -0.365383
			-0.874945  0.011327 -0.484090
			-0.787124 -0.140886 -0.600489
			-0.757291 -0.186083 -0.626006
			-0.856319 -0.055372 -0.513470
			-0.495770 -0.370817 -0.785307
			-0.671376 -0.188361 -0.716781
			-0.504992 -0.272033 -0.819134
			-0.510089 -0.345811 -0.787543
			-0.298345 -0.367022 -0.881071
			-0.464221 -0.535207 -0.705728
			-0.568615 -0.538963 -0.621447
			-0.301411 -0.628025 -0.717452
			-0.406672 -0.628220 -0.663293
			-0.153798 -0.707507 -0.689768
			 0.032719 -0.897971 -0.438836
			 0.087238 -0.907319 -0.411292
			 0.133152 -0.925307 -0.355073
			 0.021071 -0.896214 -0.443122
			 0.271749 -0.833967 -0.480261
			-0.227163 -0.771072 -0.594848
			 0.044463 -0.770417 -0.635988
			 0.216067 -0.800980 -0.558341
			 0.033355 -0.985136 -0.168504
			 0.212997 -0.927810 -0.306270
			 0.188705 -0.941901 -0.277871
			 0.010749 -0.710853 -0.703258
			-0.104679 -0.744329 -0.659558
			-0.856425  0.490056  0.162427
			-0.921217  0.385370 -0.053383
			-0.885147  0.391013  0.252237
			-0.785582  0.419197  0.455120
			-0.783378  0.505564  0.361557
			-0.654346  0.509988  0.558340
			-0.663105  0.417304  0.621409
			-0.541366  0.438886  0.717149
			-0.645176  0.379434  0.663158
			-0.680929  0.420744  0.599425
			-0.603014  0.447669  0.660277
			-0.694321  0.289591  0.658829
			-0.694461  0.205219  0.689645
			-0.694871  0.314715  0.646613
			-0.593888 -0.104373  0.797749
			-0.607010  0.122608  0.785179
			-0.540925 -0.302494  0.784791
			-0.434087 -0.215841  0.874632
			-0.424066  0.224002  0.877491
			-0.490517  0.214757  0.844554
			-0.454191 -0.165257  0.875443
			-0.513502 -0.016057  0.857938
			-0.561791  0.169997  0.809625
			 0.144581 -0.987300  0.065839
			 0.687144 -0.725803  0.032313
			 0.462527 -0.886498 -0.013781
			 0.530071 -0.821065 -0.211841
			 0.742749 -0.637986 -0.203219
			 0.644529 -0.690852 -0.327576
			 0.607714 -0.700550 -0.374051
			-0.266291 -0.065311  0.961677
			 0.001485 -0.438031  0.898959
			-0.259315 -0.109905  0.959519
			-0.131190 -0.286851  0.948950
			 0.434281 -0.786565  0.438995
			 0.572318 -0.783428  0.242265
			 0.554262 -0.774070  0.305956
			 0.508496 -0.811348  0.288350
			 0.288044 -0.775727  0.561496
			 0.279963 -0.704733  0.651899
			 0.316514 -0.757695  0.570716
			 0.205000 -0.645475  0.735756
			 0.094356 -0.559158  0.823674
			 0.612915 -0.598339 -0.516068
			 0.385617 -0.643177 -0.661531
			 0.414042 -0.633185 -0.653946
			 0.672841 -0.571750 -0.469454
			 0.825300 -0.473028 -0.308422
			 0.506108 -0.707257 -0.493601
			 0.511817 -0.663860 -0.545283
			 0.440606 -0.668847 -0.598757
			 0.461280 -0.657783 -0.595434
			 0.453478 -0.652593 -0.607026
			 0.782619 -0.540640 -0.308571
			 0.714413 -0.656883 -0.241080
			 0.784376 -0.480881 -0.391801
			 0.688576 -0.722864 -0.057716
			 0.673603 -0.738717  0.023582
			 0.564146 -0.794874  0.223417
			 0.572075 -0.763661  0.299253
			 0.731857 -0.678527  0.063137
			 0.675603 -0.729976  0.103420
			 0.593497 -0.781695  0.191610
			 0.642200 -0.766006  0.028538
			 0.608896 -0.790029  0.071416
			 0.708063 -0.702658  0.070133
			 0.670944 -0.741184 -0.021901
			-0.586644 -0.053048 -0.808106
			-0.516086 -0.029260 -0.856037
			-0.744215 -0.121868 -0.656729
			-0.599965 -0.161322 -0.783592
			-0.789231 -0.204359 -0.579095
			-0.793323  0.049379 -0.606795
			-0.827452 -0.029837 -0.560743
			-0.346696  0.748842  0.564834
			-0.978108  0.162226 -0.130335
			 0.121253  0.969084  0.214881
			-0.908194 -0.000869 -0.418549
			-0.948199  0.144792 -0.282762
			-0.769626 -0.035192 -0.637525
			-0.868254 -0.008905 -0.496041
			-0.802872 -0.071049 -0.591903
			-0.844981 -0.230471 -0.482587
			-0.760842 -0.257246 -0.595771
			-0.889317  0.038797 -0.455642
			-0.192328 -0.358131 -0.913647
			-0.253383 -0.301015 -0.919340
			-0.432008 -0.113542 -0.894694
			-0.207013 -0.135114 -0.968963
			-0.309642 -0.453081 -0.835966
			-0.187893 -0.402948 -0.895728
			-0.055755 -0.362794 -0.930200
			 0.036664 -0.324372 -0.945219
			-0.161736 -0.611603 -0.774457
			 0.007136 -0.647201 -0.762286
			 0.342355 -0.838356 -0.424209
			 0.390808 -0.831736 -0.394315
			 0.476498 -0.819684 -0.317914
			 0.210177 -0.722890 -0.658221
			 0.356268 -0.915806 -0.185396
			 0.187316 -0.698414 -0.690746
			 0.277832 -0.661925 -0.696179
			 0.138524 -0.649598 -0.747551
			-0.797230  0.502883  0.333965
			-0.896306  0.418863  0.145566
			-0.801944  0.494074  0.335822
			-0.906710  0.409186  0.102199
			-0.654257  0.378015  0.655021
			-0.854001  0.328445  0.403493
			-0.775979  0.308157  0.550360
			-0.457851  0.333420  0.824138
			-0.529269  0.403938  0.746129
			-0.778789  0.334111  0.530903
			-0.668355  0.441346  0.598762
			-0.716709  0.438487  0.542271
			-0.735429  0.336566  0.588105
			-0.704610  0.206896  0.678763
			-0.791401  0.336217  0.510532
			-0.748254  0.435057  0.500841
			-0.693948  0.367496  0.619179
			-0.700321  0.026621  0.713332
			-0.698614 -0.173686  0.694098
			-0.661258 -0.239443  0.710918
			-0.410585 -0.307521  0.858400
			-0.294417 -0.315183  0.902208
			-0.337831 -0.187657  0.922310
			-0.438291 -0.205423  0.875045
			-0.575709 -0.174574  0.798801
			-0.433750  0.121826  0.892759
			-0.501872 -0.018515  0.864744
			-0.035999 -0.423463  0.905198
			-0.230716  0.087305  0.969097
			-0.184254 -0.012338  0.982801
			-0.093833 -0.194107  0.976482
			 0.384304 -0.780971  0.492336
			 0.521816 -0.762461  0.382571
			 0.603389 -0.777832  0.175781
			 0.572821 -0.769500  0.282393
			 0.534300 -0.749437  0.390983
			 0.687015 -0.712167  0.144318
			 0.733622 -0.678854  0.030925
			 0.204242 -0.671545  0.712259
			 0.289788 -0.721257  0.629136
			 0.108253 -0.587256  0.802130
			-0.011872 -0.398409  0.917131
			 0.213045 -0.616157 -0.758263
			 0.535813 -0.550248 -0.640415
			 0.234578 -0.552069 -0.800121
			 0.278328 -0.605639 -0.745477
			 0.756809 -0.501722 -0.418946
			 0.641567 -0.658570 -0.393290
			 0.649577 -0.735193 -0.193756
			 0.527285 -0.790705 -0.311055
			 0.665897 -0.723216 -0.183139
			 0.642732 -0.428040 -0.635356
			 0.629591 -0.775081 -0.053521
			 0.841294 -0.528930 -0.111615
			 0.765831 -0.638483 -0.076431
			 0.834149 -0.540357 -0.110501
			 0.785983 -0.616888 -0.040988
			 0.733714 -0.675956  0.068909
			 0.544473 -0.826640  0.142183
			 0.573207 -0.816227  0.072159
			 0.516424 -0.824216  0.232322
			 0.567810 -0.802563  0.182987
			 0.858096 -0.494776  0.137360
			 0.840806 -0.540895 -0.021837
			 0.802530 -0.578593  0.145519
			-0.295683 -0.068420 -0.952833
			-0.308584 -0.161075 -0.937460
			-0.619398 -0.275329 -0.735214
			-0.721110 -0.141742 -0.678166
			-0.428497 -0.316642 -0.846244
			-0.859409 -0.257333 -0.441810
			-0.885798 -0.245570 -0.393773
			-0.811924 -0.339911 -0.474596
			-0.840468 -0.313097 -0.442249
			-0.867621 -0.129003 -0.480201
			-0.813729  0.046065 -0.579416
			-0.730716 -0.121278 -0.671823
			-0.902136  0.003063 -0.431440