<?xml version="1.0"?>
<VTKFile type="PolyData" version="0.1" byte_order="LittleEndian" compressor="vtkZLibDataCompressor">
	<PolyData>
		<Piece NumberOfPoints="1616" NumberOfVerts="0" NumberOfLines="0" NumberOfStrips="0" NumberOfPolys="3228">
		<PointData Normals="Normals">
		<DataArray type="Float32" Name="Normals" NumberOfComponents="3" format="ascii">
			-0.363825 -0.832001 -0.418814
			-0.435523 -0.692366 -0.575282
			-0.409792 -0.832280 -0.373337
			-0.289909 -0.885536 -0.363013
			-0.186243 -0.771692 -0.608116
			-0.279397 -0.865331 -0.416100
			-0.548514 -0.704474 -0.450387
			-0.699815 -0.563478 -0.439035
			-0.308981 -0.620144 -0.721077
			-0.493842 -0.565152 -0.660850
			-0.124580 -0.610626 -0.782058
			-0.393834 -0.776110 -0.492492
			-0.285143 -0.913567 -0.289982
			-0.368192 -0.901041 -0.229258
			-0.372839 -0.908429 -0.189073
			-0.155869 -0.968311 -0.195135
			-0.163374 -0.938313 -0.304759
			-0.320219 -0.889265 -0.326600
			 0.097150 -0.687451 -0.719703
			 0.031517 -0.842970 -0.537037
			-0.100890 -0.889414 -0.445830
			-0.573475 -0.673175 -0.466864
			-0.601654 -0.576572 -0.552790
			-0.778979 -0.548787 -0.303355
			-0.728651 -0.580880 -0.362832
			-0.623690 -0.606247 -0.493432
			-0.400975 -0.560906 -0.724295
			-0.069999 -0.505272 -0.860116
			 0.139587 -0.557248 -0.818529
			 0.063432 -0.419398 -0.905584
			-0.130618 -0.731590 -0.669115
			-0.241848 -0.826153 -0.508901
			-0.256560 -0.690103 -0.676709
			-0.442529 -0.644052 -0.623992
			-0.298173 -0.952724 -0.058396
			-0.181826 -0.829131 -0.528660
			-0.268429 -0.863655 -0.426669
			-0.120785 -0.956024 -0.267263
			-0.158171 -0.985629 -0.059308
			-0.153641 -0.984956 -0.079092
			-0.130321 -0.983182  0.127943
			-0.093425 -0.983103 -0.157418
			-0.065695 -0.920642 -0.384841
			-0.298734 -0.911531 -0.282612
			 0.100109 -0.989797 -0.101394
			-0.066657 -0.991706 -0.109892
			 0.202743 -0.775594 -0.597788
			 0.030666 -0.733236 -0.679283
			 0.103357 -0.805225 -0.583892
			 0.197508 -0.818741 -0.539122
			-0.599654 -0.613316 -0.514061
			-0.522532 -0.564832 -0.638689
			-0.654931 -0.538148 -0.530530
			-0.692422 -0.551980 -0.464618
			-0.290275 -0.496164 -0.818268
			-0.109452 -0.426429 -0.897874
			-0.018604 -0.430136 -0.902572
			-0.014093 -0.445851 -0.894996
			-0.051555 -0.394391 -0.917496
			 0.125044 -0.540197 -0.832197
			 0.032153 -0.437131 -0.898823
			-0.078846 -0.576887 -0.813010
			-0.059053 -0.500421 -0.863766
			 0.045338 -0.788905 -0.612841
			 0.017153 -0.564119 -0.825515
			 0.231560 -0.630966 -0.740447
			-0.347029 -0.572441 -0.742888
			-0.148529 -0.489810 -0.859084
			-0.404089 -0.550097 -0.730825
			-0.211539 -0.973044  0.091851
			 0.173353 -0.756595 -0.630486
			 0.058047 -0.782013 -0.620554
			-0.097375 -0.826500 -0.554451
			 0.067572 -0.876788 -0.476106
			 0.244842 -0.919256 -0.308253
			 0.074768 -0.972938 -0.218637
			-0.074637 -0.996155 -0.045886
			 0.042111 -0.998570  0.032940
			 0.092833 -0.990344 -0.102965
			-0.092040 -0.917498  0.386945
			 0.043369 -0.871659  0.488191
			 0.026160 -0.942285  0.333788
			-0.018940 -0.989239  0.145080
			 0.252153 -0.889215 -0.381727
			 0.053592 -0.979811  0.192611
			 0.281967 -0.940748  0.188380
			 0.330295 -0.939991 -0.085570
			-0.275093 -0.885412 -0.374659
			 0.065664 -0.723720 -0.686963
			-0.174592 -0.856227 -0.486203
			-0.176073 -0.835257 -0.520907
			 0.296314 -0.819175 -0.491071
			-0.134583 -0.946649 -0.292821
			-0.256796 -0.903156 -0.344044
			 0.131824 -0.908911 -0.395606
			 0.272496 -0.888112 -0.370140
			-0.494455 -0.548743 -0.674088
			-0.322797 -0.466421 -0.823561
			-0.425201 -0.403818 -0.810022
			-0.545783 -0.468367 -0.694805
			-0.704516 -0.543050 -0.456896
			-0.743472 -0.530261 -0.407520
			-0.540197 -0.614953 -0.574474
			-0.543176 -0.534820 -0.647246
			-0.319367 -0.460765 -0.828071
			-0.154903 -0.275963 -0.948604
			-0.254295 -0.508437 -0.822694
			-0.174341 -0.586735 -0.790789
			-0.086433 -0.367027 -0.926186
			-0.231376 -0.481844 -0.845158
			 0.079441 -0.603745 -0.793209
			-0.159527 -0.765264 -0.623637
			-0.395818 -0.697597 -0.597233
			-0.382315 -0.716236 -0.583816
			 0.361957 -0.634938 -0.682525
			 0.003108 -0.394818 -0.918754
			 0.277339 -0.471291 -0.837239
			 0.507222 -0.465958 -0.724989
			-0.282698 -0.485271 -0.827402
			-0.101270 -0.966009  0.237846
			 0.475235 -0.604690 -0.639141
			 0.383482 -0.678349 -0.626725
			 0.251742 -0.761462 -0.597328
			 0.479100 -0.733732 -0.481768
			 0.628173 -0.730240 -0.268605
			 0.439516 -0.870412 -0.221830
			 0.444706 -0.845738 -0.294895
			 0.277670 -0.960668  0.004170
			 0.561627 -0.826057  0.046965
			 0.190948 -0.947575  0.256203
			 0.463310 -0.874776  0.141816
			 0.465611 -0.875326 -0.130426
			-0.009032 -0.879362  0.476068
			 0.150627 -0.735089  0.661026
			 0.258035 -0.796541  0.546755
			 0.196955 -0.711496  0.674523
			 0.303349 -0.853844  0.423000
			 0.173130 -0.956525  0.234702
			 0.148038 -0.980688  0.127814
			 0.068866 -0.994422 -0.079892
			-0.393207 -0.911776 -0.118539
			-0.392838 -0.876921 -0.276926
			-0.467436 -0.883341  0.034808
			-0.088016 -0.824498 -0.558978
			-0.302276 -0.888565 -0.345081
			-0.498844 -0.862583 -0.084297
			 0.085844 -0.956266 -0.279617
			-0.280702 -0.944852 -0.168702
			-0.110536 -0.982256 -0.151506
			-0.312679 -0.949859 -0.000745
			-0.101171 -0.291310 -0.951264
			-0.027802 -0.193031 -0.980799
			-0.227243 -0.264289 -0.937290
			-0.206929 -0.181169 -0.961436
			-0.367944 -0.282299 -0.885960
			-0.554641 -0.570211 -0.605998
			-0.500592 -0.344487 -0.794189
			 0.356562 -0.749923 -0.557207
			 0.417859 -0.703162 -0.575289
			-0.635126 -0.554053 -0.538182
			-0.408065 -0.509405 -0.757621
			-0.607758 -0.564577 -0.558465
			-0.186629 -0.315959 -0.930236
			 0.008453 -0.213294 -0.976951
			-0.494019 -0.641171 -0.587235
			-0.401501 -0.667174 -0.627436
			-0.225194 -0.532265 -0.816077
			-0.293919 -0.397500 -0.869256
			-0.468157 -0.807924 -0.357893
			-0.522395 -0.763401 -0.379897
			-0.611344 -0.762640 -0.211276
			-0.577240 -0.723372 -0.378849
			 0.608539 -0.468658 -0.640343
			 0.278552 -0.273734 -0.920586
			 0.307713 -0.090059 -0.947207
			 0.156786 -0.167853 -0.973264
			-0.167586 -0.389666 -0.905580
			-0.041450 -0.299865 -0.953081
			 0.546751 -0.250080 -0.799076
			 0.752649 -0.278446 -0.596647
			 0.150591 -0.940071  0.305923
			 0.678414 -0.481725 -0.554704
			 0.604396 -0.591385 -0.533825
			 0.762546 -0.512747 -0.394479
			 0.864061 -0.454342 -0.216730
			 0.731634 -0.651143 -0.201803
			 0.717978 -0.639301 -0.275324
			 0.773230 -0.634115 -0.003566
			 0.791143 -0.609480  0.051255
			 0.826939 -0.550914  0.112542
			 0.632607 -0.728923  0.261687
			 0.254804 -0.841944  0.475610
			 0.357698 -0.687764  0.631690
			 0.519231 -0.541297  0.661360
			 0.396204 -0.602427  0.692896
			 0.224465 -0.667763  0.709724
			 0.205853 -0.765523  0.609589
			 0.241078 -0.699880  0.672346
			 0.252204 -0.770316  0.585668
			 0.138331 -0.761234  0.633551
			-0.003566 -0.932120  0.362132
			 0.261642 -0.742941  0.616102
			 0.081608 -0.820145  0.566305
			-0.128664 -0.934966  0.330581
			-0.202320 -0.940187  0.274070
			-0.168181 -0.981339  0.093220
			-0.207307 -0.978134 -0.016645
			-0.537170 -0.843386 -0.012166
			-0.380184 -0.911207  0.158627
			-0.487369 -0.831157  0.267673
			-0.562915 -0.796832  0.219513
			-0.510672 -0.842049 -0.173689
			-0.629414 -0.767807  0.119627
			-0.634120 -0.771842 -0.046383
			 0.045757 -0.127408 -0.990794
			 0.122949 -0.058223 -0.990704
			-0.063150 -0.108906 -0.992044
			 0.126696 -0.060469 -0.990097
			-0.315596 -0.124475 -0.940694
			-0.198149 -0.031661 -0.979661
			-0.650026 -0.400134 -0.646033
			-0.723746 -0.496701 -0.479040
			 0.747281 -0.559572 -0.358401
			-0.501621 -0.226687 -0.834859
			-0.581735 -0.598967 -0.550294
			-0.463659 -0.503387 -0.729124
			-0.240696 -0.413057 -0.878322
			-0.603814 -0.409846 -0.683692
			-0.151691 -0.270832 -0.950600
			-0.302421 -0.235960 -0.923507
			 0.589686 -0.167418 -0.790090
			 0.618288 -0.217162 -0.755355
			-0.620582 -0.746641 -0.239594
			-0.454966 -0.598645 -0.659265
			-0.651845 -0.719225 -0.240446
			-0.575517 -0.640100 -0.508973
			-0.595198 -0.549945 -0.585918
			-0.466731 -0.369450 -0.803535
			-0.604854 -0.784919 -0.134362
			 0.458152 -0.039769 -0.887984
			 0.454290  0.032864 -0.890247
			 0.276946 -0.011452 -0.960817
			 0.728268 -0.077820 -0.680860
			 0.584307  0.016295 -0.811369
			 0.859405 -0.241094 -0.450885
			 0.885890 -0.100115 -0.452963
			 0.884524 -0.017668 -0.466160
			 0.513907 -0.787679  0.339797
			 0.806426 -0.404763 -0.431096
			 0.916309 -0.298052 -0.267476
			 0.963804 -0.188615 -0.188433
			 0.907723 -0.378991 -0.180015
			 0.973069 -0.230183  0.012377
			 0.905144 -0.419982  0.065803
			 0.972703 -0.189229  0.134317
			 0.914798 -0.354141  0.194237
			 0.843009 -0.460656  0.277726
			 0.652237 -0.584982  0.482062
			 0.728067 -0.400464  0.556370
			 0.777953 -0.318761  0.541462
			 0.744533 -0.457474  0.486198
			 0.526435 -0.637619  0.562413
			 0.231703 -0.776185  0.586388
			 0.004136 -0.766377  0.642378
			 0.171844 -0.858735  0.482746
			-0.000218 -0.707331  0.706882
			 0.194683 -0.696413  0.690730
			 0.063190 -0.701506  0.709856
			 0.177475 -0.732088  0.657685
			 0.252147 -0.794080  0.553045
			-0.339987 -0.872335  0.351340
			-0.235418 -0.862114  0.448707
			-0.280182 -0.815602  0.506252
			-0.473397 -0.802454  0.363267
			-0.638335 -0.723515  0.262780
			-0.553964 -0.707527  0.438782
			-0.515828 -0.750644  0.412863
			-0.672075 -0.739524 -0.037667
			-0.726638 -0.687003  0.004854
			 0.258586  0.048867 -0.964751
			 0.085087  0.003943 -0.996366
			-0.440222 -0.101660 -0.892115
			-0.244569  0.068091 -0.967238
			-0.061355  0.096772 -0.993414
			-0.432185 -0.428995 -0.793208
			-0.219320 -0.334572 -0.916494
			-0.528635 -0.336639 -0.779243
			-0.237736 -0.241356 -0.940866
			-0.346258 -0.218870 -0.912251
			-0.384520 -0.264580 -0.884388
			-0.395356 -0.351652 -0.848549
			 0.774949 -0.182026 -0.605245
			-0.088635 -0.294801 -0.951439
			-0.674028 -0.632198 -0.382114
			-0.763943 -0.617448 -0.187481
			-0.727578 -0.604044 -0.325210
			-0.715628 -0.516542 -0.470171
			-0.618501 -0.404419 -0.673723
			 0.568611  0.024074 -0.822254
			 0.457109 -0.000267 -0.889411
			 0.728616  0.031956 -0.684176
			 0.975426 -0.033393 -0.217781
			 0.954471 -0.139770 -0.263534
			 0.929853 -0.219913 -0.294978
			 0.955628  0.040669 -0.291755
			 0.867788  0.129315 -0.479814
			 0.960909  0.156666 -0.228275
			 0.988120 -0.047904 -0.146027
			 0.999066 -0.033293 -0.027551
			 0.999276  0.013507  0.035559
			 0.990074 -0.126519 -0.061212
			 0.986024  0.047678  0.159633
			 0.970094 -0.037340  0.239841
			 0.891287 -0.243319  0.382626
			 0.922194 -0.095173  0.374835
			 0.821276 -0.251008  0.512349
			 0.920434 -0.127694  0.369453
			 0.890594 -0.191124  0.412691
			 0.933568 -0.247588  0.259135
			 0.911138 -0.328363  0.249009
			 0.711989 -0.511828  0.480732
			 0.499304 -0.681529  0.534988
			 0.050752 -0.704561  0.707826
			-0.253942 -0.756749  0.602366
			-0.391804 -0.781463  0.485598
			 0.828274 -0.384581  0.407504
			 0.055360 -0.640558  0.765912
			 0.828349 -0.367520  0.422809
			-0.074766 -0.683393  0.726212
			 0.684782 -0.501199  0.529030
			 0.397022 -0.667360  0.630083
			 0.148585 -0.685912  0.712353
			 0.528018 -0.593679  0.607241
			-0.731166 -0.655865  0.187719
			-0.582615 -0.642075  0.498296
			-0.649257 -0.665717  0.367812
			-0.721947 -0.608727  0.329004
			-0.432078 -0.666058  0.608009
			-0.516799 -0.610666  0.600005
			-0.437552 -0.728465  0.527150
			-0.790640 -0.602381 -0.109659
			-0.787844 -0.594755  0.159904
			 0.657301  0.087437 -0.748538
			 0.190113  0.190845 -0.963034
			 0.163871  0.154629 -0.974288
			 0.496915  0.126803 -0.858485
			 0.173976  0.132583 -0.975784
			-0.359073  0.042468 -0.932343
			-0.458382 -0.220010 -0.861093
			-0.086985  0.240474 -0.966750
			-0.198391  0.178175 -0.963792
			-0.250625  0.207842 -0.945510
			 0.084031  0.243675 -0.966210
			-0.566451 -0.318429 -0.760090
			-0.316520 -0.081219 -0.945102
			-0.501559 -0.047983 -0.863792
			-0.456791 -0.337655 -0.823002
			-0.655876 -0.453172 -0.603707
			-0.380675 -0.259863 -0.887444
			-0.777045 -0.555762 -0.295516
			 0.728584  0.155012 -0.667186
			 0.671830  0.072413 -0.737158
			 0.986026  0.140260 -0.089886
			 0.985362  0.167428 -0.032095
			 0.881546  0.189230 -0.432514
			 0.948192  0.171981 -0.267123
			 0.989425  0.131238  0.061762
			 0.983053  0.130846  0.128396
			 0.968146  0.152993  0.198209
			 0.967921  0.135077  0.211858
			 0.956412  0.001812  0.292014
			 0.979226  0.105145  0.173379
			 0.976859  0.071732  0.201496
			 0.968816 -0.019742  0.246991
			 0.957000 -0.240880  0.161642
			 0.980801 -0.089508  0.173258
			 0.933839 -0.196662  0.298779
			 0.897221 -0.254190  0.361085
			 0.918100 -0.163310  0.361139
			 0.693953 -0.428618  0.578546
			-0.090481 -0.652008  0.752794
			-0.021268 -0.548492  0.835885
			 0.287895 -0.574170  0.766450
			 0.020471 -0.610877  0.791461
			 0.035721 -0.679362  0.732933
			-0.132415 -0.601576  0.787765
			-0.226677 -0.657697  0.718368
			 0.712175 -0.436151  0.550072
			 0.462441 -0.604358  0.648768
			 0.353406 -0.562682  0.747324
			-0.616246 -0.609321  0.498969
			-0.534551 -0.579481  0.615189
			-0.490399 -0.548706  0.677075
			-0.563187 -0.522520  0.640151
			-0.622496 -0.554080  0.552716
			-0.732725 -0.564272  0.380410
			-0.316467 -0.547909  0.774367
			-0.819748 -0.557739 -0.130154
			-0.740090 -0.541158  0.399268
			-0.768984 -0.528636  0.359455
			-0.827376 -0.557453  0.068520
			-0.821049 -0.518954  0.237836
			 0.819391  0.121135 -0.560291
			 0.232058  0.316965 -0.919610
			 0.120365  0.276611 -0.953414
			-0.051654  0.254385 -0.965723
			 0.340677  0.197102 -0.919288
			 0.138314  0.149559 -0.979031
			 0.121545  0.158481 -0.979852
			 0.673804  0.183361 -0.715799
			-0.321411  0.148166 -0.935277
			-0.346572  0.013822 -0.937922
			-0.577526 -0.409951 -0.705978
			-0.485854 -0.195176 -0.851969
			 0.093368  0.450585 -0.887837
			-0.069695  0.513252 -0.855403
			-0.189168  0.318357 -0.928905
			-0.081634  0.469255 -0.879281
			-0.129426  0.344442 -0.929843
			-0.162843  0.316270 -0.934588
			-0.107122  0.353941 -0.929113
			-0.034544  0.466960 -0.883604
			-0.592079 -0.118835 -0.797070
			-0.592732 -0.456178 -0.663755
			 0.323886 -0.122296 -0.938159
			-0.396339  0.005365 -0.918089
			-0.268167  0.041520 -0.962477
			-0.356856  0.072851 -0.931315
			-0.477285 -0.307774 -0.823088
			-0.248250 -0.274750 -0.928916
			-0.587381 -0.428344 -0.686662
			-0.754699 -0.498059 -0.427044
			 0.973139  0.184409  0.137817
			 0.987618  0.095215  0.124680
			 0.982944  0.166979 -0.077063
			 0.985640  0.166838 -0.026068
			 0.999027  0.033569 -0.028590
			 0.968742  0.152225 -0.195872
			 0.995966  0.042406  0.079082
			 0.996414  0.002397  0.084582
			 0.989458 -0.043374  0.138173
			 0.929128 -0.110370  0.352903
			 0.847076 -0.258927  0.464133
			 0.862982 -0.211732  0.458728
			 0.925585 -0.117020  0.359999
			-0.313709 -0.433981  0.844540
			-0.179096 -0.468754  0.864982
			-0.321731 -0.498605  0.804912
			 0.141034 -0.630830  0.762996
			-0.096297 -0.696493  0.711072
			-0.290699 -0.626481  0.723198
			-0.423631 -0.459943  0.780377
			 0.595377 -0.492332  0.634930
			 0.792250 -0.276725  0.543842
			 0.567792 -0.427519  0.703449
			 0.381401 -0.492986  0.781984
			-0.697541 -0.525563  0.487052
			-0.545140 -0.596415  0.589162
			-0.563950 -0.524041  0.638233
			-0.526475 -0.507064  0.682430
			-0.476924 -0.442457  0.759457
			-0.388012 -0.440387  0.809633
			-0.570798 -0.414207  0.708959
			-0.831977 -0.460747 -0.309075
			-0.854467 -0.511485 -0.090939
			-0.848813 -0.528410  0.017328
			-0.711565 -0.475109  0.517636
			-0.792632 -0.492841  0.358946
			-0.802680 -0.567470  0.183530
			 0.880875  0.160635 -0.445258
			 0.153037  0.441818 -0.883955
			-0.090555  0.192286 -0.977152
			-0.063940  0.423864 -0.903466
			-0.218055  0.277756 -0.935577
			 0.004983  0.583806 -0.811878
			 0.630002  0.202909 -0.749617
			 0.292902  0.168946 -0.941098
			 0.524876  0.198061 -0.827814
			 0.442908  0.236279 -0.864873
			 0.276732  0.233788 -0.932075
			-0.375144  0.120465 -0.919106
			-0.380056 -0.050062 -0.923608
			-0.581455 -0.450156 -0.677695
			-0.453063  0.001941 -0.891476
			-0.501246 -0.223694 -0.835891
			-0.027182  0.690287 -0.723025
			 0.070921  0.760073 -0.645955
			 0.058159  0.566586 -0.821948
			 0.042163  0.491271 -0.869986
			 0.161806  0.584023 -0.795447
			-0.322262  0.197038 -0.925917
			-0.214995  0.338628 -0.916028
			 0.113025  0.511301 -0.851937
			 0.178311  0.637619 -0.749431
			 0.265941  0.757023 -0.596818
			-0.443335 -0.221376 -0.868589
			-0.309153  0.028765 -0.950577
			-0.412066 -0.545833 -0.729567
			-0.300988 -0.475880 -0.826405
			-0.151479 -0.076016 -0.985533
			 0.765421 -0.124062 -0.631459
			 0.455218 -0.088197 -0.886001
			-0.096661  0.015356 -0.995199
			-0.128946 -0.144823 -0.981019
			-0.291529 -0.384662 -0.875811
			-0.631949 -0.421814 -0.650164
			-0.765980 -0.439422 -0.469237
			 0.980771  0.153050 -0.121096
			 0.988646  0.125776 -0.082209
			 0.992494  0.116532 -0.037089
			 0.999315 -0.011358 -0.035228
			 0.992586  0.037443 -0.115637
			 0.988116 -0.023090 -0.151965
			 0.998751  0.049466  0.007035
			 0.999838  0.017374  0.004600
			 0.999323  0.026622 -0.025385
			 0.980954  0.153687 -0.118784
			 0.958372  0.177660 -0.223517
			 0.995335 -0.052205  0.081139
			 0.991816 -0.032235  0.123542
			 0.988809 -0.008432  0.148946
			 0.988806  0.007233  0.149033
			 0.978802 -0.007384  0.204675
			 0.917646 -0.083170  0.388598
			-0.442417 -0.388336  0.808370
			-0.034094 -0.599481  0.799663
			 0.273919 -0.548045  0.790326
			-0.116220 -0.540096  0.833540
			 0.544243 -0.513428  0.663470
			-0.401987 -0.551906  0.730621
			-0.200826 -0.547411  0.812410
			-0.508360 -0.397469  0.763930
			-0.503947 -0.382278  0.774533
			-0.505121 -0.371720  0.778894
			 0.756733 -0.261184  0.599281
			 0.544924 -0.382467  0.746175
			-0.672529 -0.474073  0.568295
			-0.621432 -0.416603  0.663524
			-0.527860 -0.374013  0.762547
			-0.698008 -0.371025 -0.612475
			-0.792153 -0.290266 -0.536879
			-0.859679 -0.479602 -0.175879
			-0.854330 -0.406865 -0.323389
			-0.881728 -0.458695 -0.110246
			-0.862235 -0.496700  0.099194
			-0.701463 -0.479123  0.527628
			-0.807754 -0.507996  0.299122
			-0.842491 -0.505441  0.186381
			 0.781486 -0.591622  0.198150
			 0.781931 -0.604218  0.153311
			 0.780343  0.193355 -0.594709
			 0.922220  0.182673 -0.340795
			 0.255603  0.268924 -0.928626
			-0.255008  0.247331 -0.934772
			 0.075512  0.300139 -0.950902
			-0.052044  0.457173 -0.887854
			-0.275473  0.399136 -0.874531
			-0.154039  0.663277 -0.732349
			 0.747298  0.253244 -0.614340
			 0.602093  0.288594 -0.744444
			-0.390874  0.128657 -0.911408
			-0.505028 -0.409707 -0.759663
			-0.499587 -0.134776 -0.855715
			-0.211540  0.763019 -0.610780
			 0.015169  0.901133 -0.433278
			 0.262128  0.857133 -0.443409
			 0.277353  0.602710 -0.748208
			 0.359894  0.723961 -0.588521
			 0.456007  0.640648 -0.617760
			 0.382816  0.690423 -0.613814
			-0.056920  0.448843 -0.891796
			-0.401546  0.155121 -0.902606
			-0.320601  0.296792 -0.899516
			 0.301491  0.386741 -0.871513
			 0.436492  0.546491 -0.714719
			 0.479287  0.690806 -0.541361
			 0.383009  0.815652 -0.433608
			 0.285735  0.867820 -0.406501
			-0.115319 -0.175478 -0.977706
			-0.355282 -0.362533 -0.861594
			-0.120574 -0.292244 -0.948713
			-0.141630  0.047704 -0.988770
			-0.047943 -0.098540 -0.993977
			-0.277962 -0.160964 -0.947010
			-0.470405 -0.315578 -0.824093
			-0.223105 -0.061144 -0.972875
			-0.221540 -0.098030 -0.970211
			 0.995315  0.074814 -0.061243
			 0.990768  0.079504 -0.109807
			 0.998534  0.043251 -0.032542
			 0.998696  0.037783  0.034328
			 0.991439  0.030086  0.127057
			 0.974649  0.060190 -0.215491
			 0.978251  0.054432 -0.200155
			 0.991985  0.081401 -0.096647
			 0.996621  0.081984 -0.005093
			 0.994378  0.100552  0.033208
			 0.995151  0.096686 -0.018070
			 0.996678  0.067688  0.045294
			 0.968056  0.173260 -0.181241
			 0.976750  0.162080 -0.140320
			 0.983948  0.122734 -0.129547
			 0.990153  0.100844 -0.097091
			 0.982566 -0.017563  0.185084
			 0.972883  0.007963  0.231160
			 0.845984 -0.139360  0.514674
			 0.943182 -0.027983  0.331098
			 0.886298 -0.107336  0.450505
			 0.272079 -0.504384  0.819493
			 0.045701 -0.541642  0.839366
			-0.190436 -0.494580  0.848012
			 0.497595 -0.436702  0.749460
			 0.760844 -0.339493  0.553047
			-0.382400 -0.437466  0.813875
			 0.759426 -0.336512  0.556805
			-0.526070 -0.360848  0.770090
			-0.301014 -0.463843  0.833211
			-0.538525 -0.365011  0.759446
			-0.532002 -0.323765  0.782400
			 0.757726 -0.238299  0.607507
			 0.637225 -0.324009  0.699258
			-0.540731 -0.407925  0.735668
			-0.510337 -0.381227  0.770858
			-0.619811 -0.259481 -0.740611
			-0.599029 -0.036500 -0.799895
			-0.724588 -0.035343 -0.688276
			-0.822055 -0.217255 -0.526333
			-0.866665 -0.219019 -0.448244
			-0.786946 -0.605266  0.119874
			-0.828691 -0.553079  0.085877
			-0.868854 -0.486780 -0.090209
			-0.886276 -0.267168 -0.378333
			-0.777780 -0.531332  0.335774
			-0.680628 -0.567370  0.463505
			-0.562399 -0.505899  0.654044
			-0.762336 -0.618193  0.191523
			 0.272989 -0.918538  0.285946
			 0.909693  0.216315 -0.354494
			 0.995793  0.057340 -0.071468
			 0.413996  0.367764 -0.832681
			 0.050969  0.373578 -0.926198
			-0.213194  0.403170 -0.889945
			-0.418697  0.296204 -0.858461
			-0.426594  0.299830 -0.853299
			-0.303129  0.549222 -0.778761
			 0.747701  0.344988 -0.567385
			 0.615368  0.410217 -0.673086
			-0.566639 -0.025513 -0.823571
			-0.313288 -0.190976 -0.930257
			-0.552414 -0.118559 -0.825096
			-0.640179 -0.107078 -0.760727
			-0.640476 -0.098119 -0.761685
			-0.487980  0.483275 -0.726857
			-0.278439  0.766229 -0.579106
			 0.169143  0.793948 -0.583984
			 0.330943  0.807007 -0.489098
			 0.189698  0.634459 -0.749318
			 0.341101  0.616064 -0.710011
			 0.232898  0.609620 -0.757709
			 0.508978  0.473062 -0.719134
			 0.359428  0.363552 -0.859442
			 0.036897  0.326110 -0.944612
			-0.249117  0.371260 -0.894487
			-0.225115  0.422042 -0.878182
			-0.532936  0.091244 -0.841221
			-0.380289  0.296602 -0.876018
			 0.389189  0.270285 -0.880612
			 0.234647  0.137377 -0.962325
			 0.097721  0.088461 -0.991275
			 0.368424  0.632882 -0.680973
			 0.267019  0.479336 -0.836025
			-0.523683 -0.024065 -0.851573
			 0.994707  0.040838 -0.094288
			 0.974992  0.082954  0.206179
			 0.983003  0.161793  0.086766
			 0.966779  0.183902  0.177533
			 0.962085  0.170845  0.212613
			 0.923215  0.138838 -0.358328
			 0.964029  0.201063 -0.173846
			 0.962576  0.102601 -0.250839
			 0.985850  0.164883 -0.030238
			 0.982452  0.111768 -0.149320
			 0.930016  0.176015 -0.322628
			 0.966545 -0.012792  0.256179
			 0.966380  0.019910  0.256346
			 0.967596 -0.016148  0.251986
			 0.836124 -0.236555  0.494912
			 0.052158 -0.455359  0.888779
			 0.431637 -0.451661  0.780828
			-0.202797 -0.500697  0.841532
			 0.616262 -0.351092  0.704951
			-0.490637 -0.340188  0.802214
			-0.441594 -0.429471  0.787750
			-0.561417 -0.387964  0.730954
			-0.446316 -0.416058  0.792274
			-0.562951 -0.383834  0.731954
			-0.457501 -0.273278  0.846175
			-0.491192 -0.438454  0.752654
			-0.476274 -0.421176  0.771864
			-0.473727 -0.420731  0.773672
			-0.676420 -0.042269 -0.735302
			-0.783196 -0.015148 -0.621590
			-0.805645 -0.092175 -0.585183
			-0.836061 -0.522466  0.167425
			-0.775503 -0.591050  0.221935
			-0.765781 -0.624778  0.152418
			-0.884311 -0.327039 -0.333227
			-0.848453 -0.526658 -0.052525
			-0.853628 -0.198023 -0.481774
			-0.720639 -0.597865  0.351051
			-0.496948 -0.637002  0.589297
			-0.633736 -0.686507  0.356492
			-0.443784 -0.486696  0.752451
			-0.843809 -0.517876  0.140679
			 0.883793  0.260551 -0.388617
			 0.295305  0.468762 -0.832501
			 0.076377  0.466242 -0.881354
			-0.282969  0.338886 -0.897265
			-0.335290  0.276302 -0.900688
			-0.400109  0.224570 -0.888527
			-0.389926  0.185176 -0.902035
			-0.391185  0.185031 -0.901520
			 0.462780  0.467336 -0.753281
			 0.562398  0.382787 -0.732927
			 0.807083  0.247340 -0.536135
			 0.853252  0.268294 -0.447189
			-0.717349 -0.105587 -0.688667
			-0.673358 -0.075867 -0.735414
			-0.203341  0.414897 -0.886856
			 0.086298  0.387831 -0.917682
			 0.091472  0.486560 -0.868845
			 0.051208  0.356425 -0.932919
			-0.003078  0.483368 -0.875412
			 0.176022  0.495916 -0.850343
			-0.104331  0.465329 -0.878968
			-0.127802  0.316238 -0.940032
			 0.366175  0.094128 -0.925773
			-0.154274 -0.009186 -0.987985
			 0.034204 -0.173455 -0.984248
			-0.153354  0.196323 -0.968473
			-0.341537  0.440974 -0.829996
			-0.286956  0.428942 -0.856542
			-0.242902  0.478314 -0.843928
			-0.261933  0.516799 -0.815052
			-0.542751  0.129439 -0.829859
			-0.366563  0.376829 -0.850665
			 0.125039 -0.143463 -0.981725
			-0.110214 -0.097945 -0.989070
			-0.062987  0.309106 -0.948940
			 0.956372  0.248684  0.153325
			 0.974316  0.140784  0.175751
			 0.972960  0.200390  0.114862
			 0.933056  0.285845  0.218402
			 0.946227  0.280226  0.161643
			 0.896054  0.347712  0.276012
			 0.817781  0.297438 -0.492711
			 0.899301  0.315757 -0.302580
			 0.945906  0.303804 -0.113866
			 0.967072  0.239862 -0.085078
			 0.857231  0.469441 -0.211614
			 0.943053  0.327584 -0.057788
			 0.939474  0.334275  0.075160
			 0.974397  0.133798  0.180687
			 0.925623 -0.114667  0.360657
			 0.942451  0.054514  0.329869
			 0.694939 -0.405864  0.593578
			 0.798052 -0.332457  0.502579
			-0.103830 -0.535379  0.838206
			-0.270320 -0.446136  0.853164
			 0.091045 -0.531777  0.841976
			 0.050164 -0.421161  0.905598
			 0.339232 -0.588558  0.733840
			 0.600111 -0.456281  0.657019
			-0.518632 -0.406402  0.752236
			-0.506847 -0.403691  0.761669
			-0.487921 -0.410798  0.770180
			-0.518462 -0.406143  0.752493
			-0.232696 -0.540859  0.808284
			-0.312265 -0.410382  0.856783
			-0.388177 -0.498317  0.775241
			-0.428236 -0.440986  0.788762
			-0.427772 -0.478638  0.766757
			-0.434790 -0.452005  0.778877
			-0.457905 -0.475514  0.751139
			-0.810681 -0.189364 -0.554019
			-0.728312 -0.647906  0.223114
			-0.825396 -0.564543 -0.003594
			-0.871709 -0.267650 -0.410472
			-0.888410 -0.384204 -0.251226
			-0.786052 -0.612078  0.086500
			-0.387488 -0.567235  0.726703
			-0.321730 -0.633977  0.703252
			-0.407483 -0.675395  0.614654
			-0.483343 -0.711221  0.510435
			-0.555407 -0.731490  0.395532
			-0.684158 -0.715036  0.143705
			-0.689950 -0.693516  0.207373
			-0.368014 -0.523119  0.768708
			 0.312196  0.438397 -0.842818
			-0.054321  0.367446 -0.928457
			-0.069892  0.348574 -0.934672
			-0.232963  0.333649 -0.913459
			-0.180306  0.108678 -0.977588
			-0.238080  0.128042 -0.962769
			-0.183223  0.137337 -0.973431
			 0.301101  0.387141 -0.871470
			 0.627424  0.358382 -0.691304
			-0.714963 -0.112179 -0.690104
			-0.568641  0.122065 -0.813478
			-0.052838  0.167493 -0.984456
			-0.104237  0.188851 -0.976458
			-0.245075  0.278055 -0.928775
			-0.354330  0.044792 -0.934047
			-0.360157 -0.108484 -0.926563
			-0.303463 -0.212064 -0.928945
			-0.129151 -0.203912 -0.970433
			-0.349450  0.196950 -0.916022
			-0.369121  0.475848 -0.798323
			-0.486453  0.331544 -0.808358
			-0.266650  0.509398 -0.818176
			-0.284628  0.515735 -0.808087
			-0.464230  0.391338 -0.794573
			-0.265946 -0.042407 -0.963055
			-0.211938  0.050532 -0.975976
			 0.923676  0.351255  0.153109
			 0.956921  0.250220 -0.147284
			 0.974715  0.173450  0.140876
			 0.992486  0.121865  0.010992
			 0.926510  0.161001  0.340084
			 0.832120  0.428331  0.352290
			 0.844017  0.429668  0.320969
			 0.811445  0.503676  0.296425
			 0.816497  0.533538  0.220615
			 0.884216  0.463005  0.061549
			 0.737356  0.427228 -0.523242
			 0.862809  0.435851 -0.256113
			 0.775596  0.497989 -0.387888
			 0.904471  0.412179 -0.109726
			 0.753847  0.603576 -0.259635
			 0.682334  0.637028 -0.358631
			 0.771342  0.491450 -0.404361
			 0.819301  0.543338 -0.183109
			 0.863205  0.503681 -0.034394
			 0.825602  0.550205  0.125121
			 0.841188 -0.127357  0.525532
			 0.894365 -0.041275  0.445430
			 0.860460  0.052546  0.506802
			 0.604315 -0.518535  0.604916
			 0.741171 -0.284087  0.608244
			 0.640817 -0.410823  0.648519
			 0.009777 -0.611673  0.791050
			 0.268025 -0.555837  0.786897
			 0.022564 -0.624755  0.780495
			-0.496836 -0.465615  0.732364
			-0.273563 -0.366142  0.889440
			-0.504824 -0.436519  0.744717
			-0.504899 -0.450081  0.736549
			-0.436800 -0.413822  0.798722
			-0.381487 -0.395723  0.835387
			-0.073949 -0.515133  0.853914
			 0.059179 -0.499786  0.864125
			-0.159587 -0.410545  0.897767
			-0.245272 -0.322489  0.914244
			-0.386557 -0.503148  0.772927
			-0.278551 -0.593228  0.755308
			-0.329593 -0.585499  0.740648
			-0.360462 -0.545645  0.756531
			-0.424659 -0.541605  0.725485
			-0.817771 -0.205457 -0.537622
			-0.881235 -0.401378 -0.249639
			-0.876756 -0.282797 -0.389004