<?xml version="1.0"?>
<VTKFile type="PolyData" version="0.1" byte_order="LittleEndian" compressor="vtkZLibDataCompressor">
	<PolyData>
		<Piece NumberOfPoints="2925" NumberOfVerts="0" NumberOfLines="0" NumberOfStrips="0" NumberOfPolys="5846">
		<PointData Normals="Normals">
		<DataArray type="Float32" Name="Normals" NumberOfComponents="3" format="ascii">
			-0.235689  0.462452  0.854745
			-0.124766  0.560182  0.818920
			-0.127760  0.559378  0.819007
			-0.191774  0.453792  0.870227
			-0.223118  0.462662  0.857999
			-0.362032  0.339017  0.868332
			-0.279137  0.414427  0.866217
			-0.273670  0.396146  0.876455
			-0.065217  0.546748  0.834753
			-0.004313  0.530297  0.847801
			 0.029011  0.625152  0.779963
			 0.232887  0.577459  0.782499
			-0.008124  0.564338  0.825504
			-0.099188  0.522153  0.847065
			-0.102553  0.517434  0.849556
			-0.276661  0.385204  0.880384
			-0.136946  0.488206  0.861917
			 0.067185  0.479652  0.874883
			-0.304579  0.389215  0.869335
			-0.367084  0.321880  0.872721
			 0.090782  0.472171  0.876820
			-0.089813  0.517138  0.851176
			-0.219851  0.499424  0.837998
			-0.280577  0.424500  0.860858
			-0.415349  0.297277  0.859716
			-0.402670  0.282137  0.870779
			-0.411529  0.263824  0.872377
			-0.394942  0.311818  0.864170
			-0.356378  0.309688  0.881526
			-0.439090  0.351304  0.826913
			 0.554529  0.440355  0.706106
			 0.011229  0.582009  0.813105
			 0.840769  0.326255  0.432048
			 0.114733  0.552330  0.825692
			-0.138254  0.539061  0.830843
			 0.947706  0.182855  0.261567
			-0.260378  0.459227  0.849302
			 0.064412  0.602438  0.795562
			 0.073484  0.574776  0.815005
			-0.020052  0.526727  0.849798
			 0.000425  0.563412  0.826176
			-0.078005  0.560917  0.824189
			-0.058744  0.559554  0.826710
			-0.105092  0.513197  0.851813
			-0.123634  0.546739  0.828125
			-0.363326  0.307716  0.879378
			 0.550662  0.416935  0.723143
			 0.946313  0.168822  0.275664
			-0.376968  0.337714  0.862464
			-0.342088  0.329088  0.880157
			-0.415203  0.298837  0.859246
			-0.331437  0.409650  0.849904
			-0.503708  0.159431  0.849035
			-0.479622  0.222607  0.848769
			-0.436372  0.245515  0.865622
			 0.831725  0.282313  0.478052
			-0.023706  0.521997  0.852618
			-0.030737  0.576671  0.816398
			 0.224628  0.515887  0.826682
			 0.001082  0.549338  0.835599
			-0.069114  0.539306  0.839269
			-0.329080  0.509981  0.794748
			-0.136745  0.653188  0.744746
			-0.216611  0.603856  0.767097
			-0.346912  0.381480  0.856811
			-0.573134  0.181585  0.799090
			-0.532962  0.244521  0.810037
			-0.438548  0.319540  0.839982
			-0.479289  0.178755  0.859261
			-0.572849  0.126026  0.809914
			-0.409023  0.334878  0.848857
			-0.461110  0.217783  0.860202
			-0.408051  0.356848  0.840330
			-0.353181  0.289942  0.889493
			-0.131674  0.552532  0.823025
			 0.090257  0.627946  0.773006
			-0.028967  0.570764  0.820603
			-0.198485  0.500058  0.842939
			-0.349526  0.409616  0.842643
			-0.259470  0.473763  0.841561
			 0.205793  0.659063  0.723384
			 0.178799  0.630249  0.755524
			 0.232992  0.618780  0.750217
			 0.228924  0.596389  0.769360
			 0.068587  0.576081  0.814510
			 0.158941  0.647516  0.745293
			 0.034187  0.606970  0.793989
			-0.088305  0.561190  0.822963
			-0.059782  0.546323  0.835438
			-0.101130  0.515701  0.850779
			-0.132111  0.541178  0.830466
			-0.548179  0.150313  0.822743
			-0.574643  0.257880  0.776713
			-0.472799  0.311451  0.824293
			-0.622930  0.200073  0.756260
			-0.418864  0.374486  0.827233
			-0.678414  0.076678  0.730667
			-0.577361  0.040068  0.815505
			-0.609812  0.074366  0.789050
			-0.029621  0.612807  0.789678
			-0.054761  0.578529  0.813822
			-0.296501  0.549264  0.781278
			-0.225187  0.484982  0.845034
			-0.386711  0.511497  0.767350
			-0.405668  0.597489  0.691694
			-0.352761  0.633122  0.688996
			-0.092158  0.662789  0.743114
			-0.174538  0.678767  0.713310
			-0.127929  0.676804  0.724962
			-0.262239  0.584788  0.767629
			-0.162221  0.644798  0.746941
			-0.706128  0.046198  0.706576
			-0.716704  0.019877  0.697095
			-0.382596  0.374957  0.844410
			-0.413525  0.336892  0.845873
			-0.541743  0.236296  0.806647
			-0.570095  0.088208  0.816830
			-0.703979 -0.038877  0.709156
			-0.591854  0.068401  0.803138
			 0.187044  0.636732  0.748056
			 0.242945  0.665017  0.706208
			-0.190537  0.504782  0.841957
			-0.067748  0.566593  0.821208
			 0.127653  0.662923  0.737725
			-0.290834  0.431902  0.853742
			-0.379346  0.363876  0.850700
			 0.380706  0.681940  0.624516
			 0.397907  0.689396  0.605312
			 0.394095  0.668939  0.630246
			 0.393778  0.638153  0.661589
			 0.523702  0.608277  0.596436
			 0.346176  0.614081  0.709272
			 0.388537  0.670122  0.632437
			 0.131281  0.671604  0.729187
			 0.283389  0.744390  0.604627
			 0.013743  0.633782  0.773390
			-0.080603  0.619306  0.781002
			-0.527932  0.262350  0.807750
			-0.457039  0.280504  0.844058
			-0.455305  0.198800  0.867857
			 0.746996  0.196760  0.635045
			-0.688280  0.466779  0.555326
			-0.679960  0.352407  0.643011
			-0.764486  0.217111  0.606979
			 0.943426  0.183056  0.276476
			 0.762123  0.449040  0.466402
			-0.758041 -0.042195  0.650841
			-0.795156 -0.081323  0.600927
			-0.829713 -0.145089  0.539004
			-0.847798 -0.180478  0.498664
			-0.605135  0.187853  0.773643
			-0.680387  0.149325  0.717479
			-0.741887  0.043327  0.669123
			-0.720416 -0.159628  0.674922
			-0.734522 -0.173833  0.655941
			 0.043821  0.704916  0.707935
			 0.056134  0.710766  0.701185
			-0.476280  0.466428  0.745387
			 0.489303  0.456552  0.743063
			-0.490050  0.569738  0.659734
			-0.552950  0.654537  0.515584
			-0.215403  0.682584  0.698341
			-0.342203  0.775447  0.530640
			-0.461362  0.776810  0.428616
			-0.108835  0.721476  0.683833
			-0.025988  0.728294  0.684771
			-0.091683  0.674148  0.732884
			-0.098654  0.742662  0.662360
			-0.100474  0.685323  0.721275
			-0.825598 -0.200309  0.527508
			-0.821117 -0.110342  0.559993
			-0.686564  0.034878  0.726232
			-0.599112  0.142272  0.787924
			-0.853901 -0.115082  0.507552
			-0.781891 -0.068557  0.619635
			-0.802311 -0.144231  0.579219
			-0.255867  0.452390  0.854328
			-0.272127  0.445371  0.852990
			-0.063265  0.563726  0.823535
			-0.396821  0.355691  0.846178
			-0.561725  0.206932  0.801027
			-0.638408 -0.057217  0.767569
			-0.768477 -0.212724  0.603483
			-0.759198 -0.119960  0.639709
			-0.688552 -0.130396  0.713367
			 0.350305  0.695678  0.627151
			 0.569939  0.697673  0.434076
			-0.203976  0.496034  0.844005
			-0.069854  0.557308  0.827362
			-0.045357  0.553447  0.831649
			-0.019950  0.618739  0.785343
			 0.382688  0.685307  0.619600
			 0.392743  0.696472  0.600567
			 0.112281  0.635015  0.764297
			-0.355418  0.396245  0.846563
			-0.111508  0.538160  0.835434
			 0.593162  0.682926  0.426346
			 0.603827  0.673790  0.425911
			 0.587234  0.654331  0.476453
			 0.738831  0.580193  0.342791
			 0.568686  0.604176  0.558183
			 0.464478  0.650438  0.600991
			 0.412391  0.716027  0.563240
			 0.241275  0.781078  0.575937
			 0.286785  0.802618  0.523029
			 0.414861  0.807129  0.420040
			 0.352322  0.832739  0.427101
			 0.460166  0.265875  0.847088
			-0.731241  0.156456  0.663934
			 0.951220  0.085074  0.296553
			-0.491134  0.612935  0.618949
			-0.786081  0.321252  0.528084
			-0.627196  0.455613  0.631698
			-0.851608  0.147122  0.503109
			-0.913997  0.145149  0.378869
			-0.839473  0.336215  0.426901
			-0.806178 -0.191889  0.559693
			-0.838015 -0.153256  0.523682
			-0.755826 -0.151945  0.636899
			-0.791131 -0.290006  0.538524
			-0.757594 -0.025943  0.652210
			-0.817198 -0.108862  0.565983
			-0.674276  0.012098  0.738380
			-0.684535  0.003954  0.728970
			-0.784273 -0.430686  0.446571
			-0.801215 -0.418824  0.427366
			-0.822960 -0.402282  0.401131
			 0.223576  0.799384  0.557673
			 0.208617  0.834366  0.510208
			 0.114215  0.843304  0.525160
			 0.197132  0.800697  0.565706
			-0.669483  0.576868  0.467991
			-0.665623  0.686077  0.293675
			-0.589838  0.732219  0.340510
			-0.211069  0.789740  0.575987
			-0.288619  0.837141  0.464644
			-0.292040  0.913436  0.283457
			-0.319795  0.890416  0.323869
			-0.535171  0.793262  0.290392
			-0.064996  0.817375  0.572427
			-0.022535  0.801181  0.597997
			-0.047292  0.806037  0.589973
			-0.181862  0.900075  0.395969
			-0.867880 -0.338780  0.363335
			-0.812957 -0.181389  0.553352
			-0.831170 -0.187387  0.523490
			-0.882463 -0.201692  0.424947
			-0.769625 -0.086531  0.632606
			-0.656132  0.085905  0.749741
			-0.827879 -0.152082  0.539896
			-0.903673 -0.241352  0.353728
			-0.919125 -0.238367  0.313674
			-0.776434 -0.085547  0.624366
			-0.319661  0.415208  0.851715
			-0.309431  0.439529  0.843247
			-0.244285  0.478214  0.843586
			-0.466339  0.307346  0.829498
			-0.579171  0.211125  0.787392
			-0.670296  0.076000  0.738192
			-0.620574  0.135002  0.772439
			-0.733112 -0.262019  0.627609
			-0.820436 -0.213583  0.530347
			-0.814432 -0.327312  0.479132
			 0.534058  0.702233  0.470797
			 0.677857  0.686984  0.261846
			 0.754692  0.638124  0.152441
			 0.742707  0.621015  0.250451
			-0.081879  0.536500  0.839919
			-0.193495  0.484084  0.853360
			 0.000254  0.562902  0.826524
			 0.604808  0.693248  0.391937
			 0.588749  0.692470  0.416966
			 0.396441  0.676625  0.620494
			 0.255604  0.634185  0.729710
			 0.137289  0.601870  0.786705
			 0.659126  0.645232  0.386301
			 0.871298  0.474606  0.124857
			 0.835789  0.526437  0.155953
			 0.818791  0.497404  0.286654
			 0.660481  0.578561  0.478573
			 0.535764  0.696830  0.476849
			 0.438213  0.811299  0.386992
			 0.373010  0.868749  0.325789
			 0.406433  0.881548  0.240177
			 0.567429  0.778130  0.269328
			 0.437590  0.874663  0.208517
			-0.849820  0.040363  0.525524
			-0.875784  0.105481  0.471038
			-0.754898  0.454449  0.472869
			-0.817931  0.421128  0.391969
			-0.968277  0.046539  0.245508
			-0.981794  0.042050  0.185235
			-0.902964  0.209570  0.375149
			-0.780795  0.468242  0.413653
			-0.827934  0.473404  0.300688
			-0.855579 -0.312113  0.413002
			-0.811939 -0.437416  0.386551
			-0.783719 -0.210098  0.584502
			-0.774444 -0.537213  0.334124
			-0.804731 -0.324699  0.496969
			-0.768422 -0.051804  0.637844
			-0.777441 -0.040103  0.627676
			-0.614954  0.020115  0.788307
			 0.979960 -0.017087  0.198459
			 0.754438 -0.040181  0.655141
			 0.752365 -0.070127  0.655004
			-0.795749 -0.028262  0.604966
			-0.760842 -0.597271  0.253745
			-0.779407 -0.542740  0.312983
			-0.837990 -0.491919  0.236197
			-0.790120 -0.581843  0.192793
			-0.816718 -0.552263  0.167262
			-0.778514 -0.580031  0.239749
			 0.291177  0.852589  0.433945
			 0.798596  0.555318  0.232091
			 0.437594  0.822928  0.362355
			 0.285107  0.923763  0.255689
			 0.243079  0.916158  0.318696
			 0.037257  0.886801  0.460647
			-0.760130  0.585430  0.281913
			-0.689934  0.698366  0.190462
			-0.614551  0.779582  0.120743
			-0.517783  0.823163  0.233032
			-0.283183  0.892763  0.350404
			 0.590202  0.786427  0.182193
			 0.780755  0.602445  0.165775
			-0.389006  0.888094  0.244873
			-0.045759  0.907559  0.417424
			-0.196303  0.950483  0.240929
			-0.275116  0.933194  0.231213
			-0.082081  0.962226  0.259583
			-0.906519 -0.374223  0.195397
			-0.869327 -0.485167  0.094254
			-0.868027 -0.496472 -0.006673
			-0.838684 -0.540199  0.069235
			-0.673578  0.023412  0.738746
			-0.702455 -0.015332  0.711563
			-0.822116 -0.235608  0.518280
			-0.787922 -0.166476  0.592845
			-0.862078 -0.252517  0.439382
			-0.898625 -0.353364  0.260015
			-0.912415 -0.392423  0.116199
			-0.168216  0.528944  0.831818
			-0.199195  0.485721  0.851115
			-0.407169  0.348336  0.844320
			-0.114101  0.553610  0.824922
			-0.534103  0.237252  0.811447
			-0.541654  0.193669  0.817987
			-0.760812 -0.075503  0.644566
			-0.782908 -0.094126  0.614976
			-0.607802  0.100342  0.787724
			-0.747606  0.003167  0.664135
			-0.767894 -0.019078  0.640293
			 0.718955  0.670027  0.184848
			 0.793589  0.593989  0.131881
			 0.830584  0.556595 -0.018217
			 0.802765  0.593437  0.058314
			 0.853004  0.504714  0.132842
			-0.029965  0.554117  0.831899
			 0.666970  0.695703  0.266737
			 0.319855  0.671769  0.668146
			 0.519768  0.703557  0.484613
			 0.117652  0.632777  0.765344
			 0.184642  0.640102  0.745773
			 0.957332  0.281566  0.065079
			 0.989000  0.145144  0.028494
			 0.877446  0.458254  0.141748
			 0.843151  0.525610  0.113269
			 0.910783  0.394874  0.120617
			 0.892449  0.395207  0.217594
			 0.783245  0.489716  0.383022
			 0.785928  0.453330  0.420487
			 0.740168  0.532684  0.410365
			 0.645943  0.678242  0.350352
			 0.334643  0.909316  0.247302
			 0.802814  0.574401  0.159857
			 0.425659  0.897592  0.114645
			 0.419139  0.893122  0.163266
			 0.811764  0.549714  0.197112
			 0.566078  0.803252  0.185316
			 0.462573  0.867665  0.182165
			-0.772768 -0.037032  0.633607
			-0.981804 -0.040088  0.185617
			-0.951985 -0.075401  0.296714
			-0.998136 -0.048131  0.037530
			-0.996915 -0.060888  0.049537
			-0.971482  0.120949  0.203945
			-0.996549 -0.014629 -0.081708
			-0.905337  0.283478  0.316237
			-0.879263  0.470685  0.073153
			-0.941658  0.304404  0.143592
			-0.797019  0.599815  0.070594
			-0.707420 -0.675469  0.208082
			-0.862285 -0.222277  0.455036
			-0.717484 -0.665181  0.206763
			-0.693230 -0.686729  0.218712
			-0.835186 -0.454172  0.310148
			-0.768284 -0.605905  0.206443
			-0.833256 -0.302749  0.462631
			-0.873206 -0.235793  0.426513
			-0.871953 -0.161973  0.462021
			-0.800537 -0.065255  0.595720
			 0.662678  0.061749  0.746354
			-0.756861 -0.642914  0.117569
			-0.784552 -0.619377  0.029142
			-0.750862 -0.658811  0.046630
			-0.696094 -0.700747  0.156229
			 0.887329  0.445695  0.118336
			 0.481463  0.861184  0.162959
			 0.342154  0.924844  0.166116
			 0.372681  0.874513  0.310380
			 0.271459  0.857512  0.437016
			 0.029199  0.951608  0.305923
			 0.073438  0.927682  0.366078
			-0.262232  0.925689  0.272643
			-0.424738  0.903437  0.058304
			-0.464994  0.884084  0.046642
			-0.495823  0.854677  0.153905
			-0.756820  0.653381  0.017808
			-0.760267  0.643894 -0.085992
			-0.659514  0.748761  0.066321
			 0.578665  0.781155  0.234400
			-0.112885  0.969879  0.215851
			-0.246624  0.953311  0.174284
			-0.165625  0.985467  0.037717
			-0.226610  0.961818  0.153470
			-0.339552  0.917350  0.207784
			-0.827252 -0.544131 -0.139913
			-0.822243 -0.564134 -0.075295
			-0.752499 -0.605955 -0.258001
			-0.749237 -0.643717 -0.155796
			-0.840827 -0.297362  0.452313
			-0.875466 -0.382029  0.295994
			-0.869521 -0.333374  0.364412
			-0.843290 -0.187090  0.503845
			-0.839791 -0.356949  0.409070
			-0.873428 -0.478654  0.089525
			-0.045458  0.569903  0.820454
			-0.239352  0.454487  0.857993
			-0.142186  0.515581  0.844961
			-0.339694  0.392635  0.854661
			-0.508220  0.276965  0.815477
			-0.422881  0.327873  0.844790
			 0.022788  0.591545  0.805950
			-0.129888  0.527565  0.839526
			-0.619646  0.180459  0.763854
			-0.559955  0.248667  0.790326
			-0.815027 -0.121163  0.566613
			-0.858329 -0.280150  0.429868
			-0.759213 -0.080346  0.645864
			-0.836298 -0.140330  0.530013
			-0.745443 -0.017239  0.666347
			-0.811327 -0.137532  0.568185
			 0.766674  0.635525  0.091211
			 0.845490  0.533785  0.014802
			 0.807090  0.580262  0.109091
			 0.792747  0.594263  0.135659
			 0.963700  0.256407 -0.074419
			 0.891019  0.441371 -0.106196
			 0.847958  0.529154 -0.031018
			 0.814859  0.579320 -0.019813
			 0.852502  0.514428 -0.092764
			 0.908760  0.406203 -0.095676
			 0.946873  0.313791  0.070472
			 0.666410  0.685520  0.293190
			 0.771942  0.631217  0.075304
			 0.394587  0.682729  0.614965
			 0.235823  0.662454  0.711015
			 0.486070  0.700533  0.522485
			 0.566403  0.700245  0.434562
			 0.167304  0.643132  0.747255
			 0.875583  0.474843  0.088758
			 0.874652  0.483325  0.037157
			 0.926453  0.373981 -0.042695
			 0.958818  0.279015 -0.053091
			 0.966075  0.234459  0.108292
			 0.877964  0.364399  0.310472
			 0.867874  0.351032  0.351526
			 0.876458  0.360767  0.318856
			 0.888997  0.373478  0.264951
			 0.338975  0.927844  0.155571
			 0.448783  0.872302  0.194121
			 0.425365  0.902416  0.068627
			 0.422057  0.856174  0.298052
			 0.342588  0.876460  0.338307
			 0.326691  0.863749  0.383681
			 0.946544  0.276465  0.166196
			 0.884742  0.460907  0.069256
			 0.937183  0.347049  0.035295
			 0.929516  0.352581  0.108103
			 0.794773  0.605784  0.036896
			 0.658466  0.747082  0.091051
			 0.555849  0.828618  0.066516
			 0.486996  0.837609  0.247481
			-0.924290 -0.174036  0.339705
			-0.966517 -0.229402  0.114973
			-0.974807 -0.184295  0.125646
			-0.995432 -0.058482  0.075466
			-0.999496 -0.029182  0.012491
			-0.999614 -0.018323  0.020899
			-0.990595  0.084218  0.107836
			-0.984464  0.144525 -0.099716
			-0.947021  0.072113 -0.312971
			-0.982921  0.124323 -0.135683
			-0.993767  0.100825 -0.047565
			-0.919629  0.363288 -0.149345
			-0.891979  0.423700 -0.157647
			-0.851937  0.482749 -0.202872
			-0.649272 -0.724124  0.232572
			-0.940222 -0.240932  0.240695
			-0.688536 -0.678904  0.254967
			-0.741014 -0.647881  0.176491
			-0.713535 -0.677997  0.176600
			-0.903046 -0.325656  0.280101
			-0.882370 -0.444622  0.154061
			-0.722053 -0.677369  0.140751
			-0.678730 -0.724238 -0.121673
			-0.666943 -0.744814  0.020974
			-0.671840 -0.685550  0.280449
			 0.405126  0.862337  0.303723
			 0.355720  0.875586  0.326823
			 0.314019  0.907723  0.278265
			 0.223274  0.924332  0.309450
			 0.365517  0.847723  0.384400
			 0.092537  0.939959  0.328502
			-0.022331  0.990756  0.133804
			-0.359822  0.932519  0.030614
			-0.400035  0.909787  0.110728
			-0.327612  0.941623  0.077570
			-0.225694  0.963649  0.142976
			-0.244010  0.969627 -0.016830
			-0.411469  0.904763 -0.109987
			-0.281668  0.942388 -0.180464
			-0.830145  0.514773 -0.214169
			-0.746125  0.663786 -0.051823
			-0.666865  0.732829 -0.135105
			-0.539748  0.825643 -0.164273
			 0.011342  0.984543 -0.174775
			-0.126721  0.970858 -0.203413
			-0.247293  0.964021 -0.097519
			-0.747641 -0.622749 -0.230688
			-0.676946 -0.650823 -0.343764
			-0.706528 -0.614785 -0.350511
			-0.680818 -0.669672 -0.296692
			-0.695925 -0.686758 -0.209885
			-0.867062 -0.414943  0.275729
			-0.839563 -0.541482  0.043949
			-0.865701 -0.461600  0.193617
			-0.883382 -0.289917  0.368217
			-0.854339 -0.221525  0.470139
			-0.836754 -0.170702  0.520291
			-0.841497 -0.533502  0.085197
			-0.077898  0.565747  0.820892
			-0.002251  0.585276  0.810831
			-0.166074  0.493200  0.853917
			-0.194246  0.472837  0.859473
			-0.349879  0.369988  0.860636
			-0.478122  0.276811  0.833532
			-0.603478  0.203320  0.771023
			-0.662264  0.146223  0.734865
			-0.848054 -0.213592  0.484957
			-0.898790 -0.322910  0.296490
			-0.853217 -0.516255  0.074177
			-0.855679 -0.405946  0.320971
			-0.744242 -0.015358  0.667734
			-0.808292 -0.060252  0.585691
			-0.820328 -0.137404  0.555141
			-0.715405  0.048246  0.697043
			-0.884913 -0.269092  0.380156
			-0.834607 -0.112813  0.539171
			-0.773853 -0.033040  0.632503
			-0.845757 -0.238297  0.477399
			-0.852694 -0.203755  0.481038
			 0.885875  0.458944 -0.067790
			 0.975472  0.218526 -0.026468
			 0.978584  0.191034 -0.076675
			 0.863579  0.472558 -0.175842
			 0.880486  0.420320 -0.219261
			 0.899320  0.402450 -0.171050
			 0.832778  0.524755 -0.176387
			 0.859621  0.474839 -0.188623
			 0.873945  0.456120 -0.167851
			 0.897841  0.415810 -0.144859
			 0.867649  0.461734 -0.184359
			 0.760503  0.644621  0.078092
			 0.275774  0.669293  0.689925
			 0.570434  0.702753  0.425139
			 0.351824  0.685355  0.637580
			 0.691223  0.679657  0.245513
			 0.184103  0.651758  0.735743
			 0.937882  0.340514 -0.066542
			 0.939563  0.322044 -0.116231
			 0.909905  0.394019 -0.129700
			 0.961986  0.210638 -0.173822
			 0.974854  0.136889 -0.175842
			 0.984021  0.153389 -0.090407
			 0.990997  0.129446  0.034182
			 0.988398  0.120696  0.092211
			 0.964994  0.167062  0.202182
			 0.951545  0.228070  0.206269
			 0.386558  0.804927  0.450184
			 0.439428  0.836218  0.328089
			 0.987987  0.056634  0.143785
			 0.978147  0.179838  0.104342
			 0.835319  0.546617 -0.058754
			 0.969453  0.225650 -0.096142
			 0.902295  0.407253 -0.141451
			 0.704797  0.708460 -0.036689
			 0.669151  0.733430 -0.119652
			 0.604055  0.791823 -0.090192
			 0.566092  0.820493  0.079572
			 0.515102  0.851880  0.094713
			 0.567185  0.813165  0.130631
			-0.925680 -0.358262  0.121507
			-0.992958 -0.057218  0.103731
			-0.960411 -0.167928  0.222285
			-0.986742 -0.034177  0.158656
			-0.965869  0.099884  0.239000
			-0.924408  0.361208 -0.122470
			-0.980136  0.113050 -0.162948
			-0.972749  0.187234  0.136760
			-0.961760  0.198777  0.188427
			-0.879145  0.381073 -0.286160
			-0.678768 -0.636552  0.366163
			-0.774688 -0.585205  0.239571
			-0.706497 -0.626003  0.330124
			-0.670477 -0.659969  0.338972
			-0.667001 -0.743842  0.042535
			-0.669229 -0.741216  0.052262
			-0.571238 -0.820709  0.011122
			-0.691412 -0.688118 -0.220097
			-0.624826 -0.762977  0.165709
			-0.596111 -0.780409  0.188717
			 0.476674  0.793155  0.379061
			 0.274255  0.961418  0.021450
			 0.388183  0.920822  0.037432
			 0.188071  0.978296  0.086980
			 0.444599  0.875224  0.190565
			 0.085779  0.996281 -0.008166
			 0.057202  0.962376 -0.265631
			-0.144601  0.986753  0.073539
			-0.031334  0.991005  0.130101
			-0.090678  0.914548 -0.394182
			-0.232895  0.828561 -0.509163
			-0.817995  0.570557  0.073133
			-0.782284  0.622850 -0.009473
			-0.614207  0.719488 -0.324172
			-0.538918  0.719789 -0.437573
			-0.440498  0.729233 -0.523623
			 0.062357  0.903690 -0.423623
			 0.047134  0.869388 -0.491877
			-0.137712  0.985845 -0.095633
			-0.051264  0.917924 -0.393431
			-0.630184 -0.670553 -0.391443
			-0.759700 -0.623030 -0.186252
			-0.672111 -0.655617 -0.344140
			-0.628677 -0.660114 -0.411114
			-0.642012 -0.709838 -0.289741
			-0.628059 -0.753686 -0.193648
			-0.632966 -0.710649 -0.307134
			-0.852293 -0.491164  0.179875
			-0.805695 -0.591253 -0.035711
			-0.794106 -0.603254 -0.074028
			 0.074269  0.640535  0.764329
			 0.207386  0.680736  0.702559
			-0.057422  0.556188  0.829071
			 0.088578  0.648295  0.756219
			 0.108686  0.647216  0.754519
			-0.340124  0.354891  0.870843
			-0.236803  0.448379  0.861905
			-0.026221  0.572762  0.819302
			 0.088875  0.614141  0.784176
			-0.406934  0.293777  0.864928
			-0.477759  0.264832  0.837622
			-0.594872  0.171061  0.785408
			-0.670680  0.113217  0.733055
			-0.685171  0.074642  0.724548
			-0.878396 -0.473038  0.068235
			-0.891825 -0.319845  0.319917
			-0.769079 -0.596222 -0.230296
			-0.727340 -0.639973 -0.247810
			-0.894929 -0.313036  0.317978
			-0.895598 -0.381869  0.228213
			-0.900677 -0.342214  0.267713
			-0.884772 -0.236565  0.401516
			-0.841070 -0.127547  0.525674
			-0.767586  0.004980  0.640927
			-0.897710 -0.412112  0.155826
			 0.910692  0.363685 -0.195891
			 0.886079  0.376800 -0.269972
			 0.881101  0.429454 -0.198067
			 0.898693  0.321805 -0.297980
			 0.907679  0.229552 -0.351318
			 0.917250  0.299194 -0.262936
			 0.839925  0.505801 -0.196702
			 0.853666  0.427164 -0.297967
			 0.803269  0.582232 -0.125556
			 0.858975  0.398773 -0.321156
			 0.862354  0.429734 -0.267719
			 0.884803  0.373400 -0.278739
			 0.874904  0.433911 -0.215090
			 0.800611  0.595753 -0.064035
			 0.444813  0.704784  0.552649
			 0.703893  0.682812  0.195713
			 0.762821  0.640753  0.086835
			 0.244890  0.683941  0.687207
			 0.952473  0.187492 -0.240086
			 0.955583 -0.036885 -0.292405
			 0.983843 -0.009158 -0.178799
			 0.998475 -0.050972 -0.021224
			 0.991563  0.039639  0.123415
			 0.458613  0.778445  0.428599
			 0.478932  0.850219  0.218522
			 0.498773  0.866692  0.008454
			 0.998302  0.000940 -0.058247
			 0.771674  0.614027 -0.165800
			 0.958334  0.170003 -0.229554
			 0.914242  0.336937 -0.225023
			 0.849812  0.476137 -0.226082
			 0.662467  0.708810 -0.242336
			 0.725560  0.659836 -0.195398
			 0.601369  0.768861 -0.217273
			 0.563343  0.818748 -0.110888
			 0.575782  0.816184 -0.048163
			 0.523474  0.823652 -0.218109
			-0.833695 -0.526322  0.167145
			-0.923923 -0.353458  0.146402
			-0.935865 -0.040143  0.350064
			-0.922287 -0.305769  0.236416
			-0.898872 -0.361877  0.247133
			-0.966896 -0.222907  0.124198
			-0.938052 -0.288453  0.191973
			-0.948906 -0.157386  0.273509
			-0.938424  0.180749  0.294432
			-0.976441  0.091703  0.195330
			-0.972801 -0.027310  0.230025
			-0.930736  0.318938  0.178908
			-0.827935  0.538596  0.156325
			-0.953798  0.228771  0.194765
			-0.692294 -0.629239  0.353253
			-0.699026 -0.627304  0.343296
			-0.749997 -0.600872  0.276509
			-0.722522 -0.587006  0.365221
			-0.769971 -0.565006  0.296501
			-0.634705 -0.716695  0.288961
			-0.611867 -0.637335  0.468425
			-0.610053 -0.643176  0.462774
			-0.705150 -0.694728  0.141834
			-0.617971 -0.743599  0.255288
			-0.582754 -0.796163  0.162855
			-0.651982 -0.751713  0.099227
			-0.639120 -0.761714  0.106386
			-0.692961 -0.709173 -0.129918
			-0.446888 -0.865272  0.227147
			-0.680855 -0.668314 -0.299654
			-0.595352 -0.706982  0.381748
			-0.621703 -0.677621  0.392829
			 0.457471  0.811280  0.364068
			 0.494639  0.866253  0.070274
			 0.210800  0.950009 -0.230318
			 0.341727  0.867645 -0.361130
			 0.452244  0.871410 -0.190053
			 0.194929  0.821853 -0.535314
			-0.070892  0.725240 -0.684837
			 0.015451  0.806877 -0.590517
			-0.040073  0.825150 -0.563491
			-0.099318  0.632062 -0.768527
			-0.719885  0.625792 -0.300248
			-0.818176  0.434585 -0.376463
			-0.880204  0.458199 -0.123671
			-0.354724  0.677570 -0.644259
			-0.438422  0.635992 -0.635060
			-0.220943  0.648750 -0.728222
			 0.169220  0.732586 -0.659305
			 0.193492  0.708380 -0.678792
			-0.618571 -0.679902 -0.393832
			-0.601293 -0.693522 -0.396830
			-0.686976 -0.652558 -0.319736
			-0.628322 -0.659942 -0.411932
			-0.615424 -0.658745 -0.432791
			-0.614226 -0.679288 -0.401614
			-0.650119 -0.750844 -0.116528
			-0.649504 -0.711450 -0.268298
			-0.427525 -0.798301 -0.424191
			-0.618887 -0.767359 -0.167746
			-0.554934 -0.788708 -0.264552
			 0.217164  0.687539  0.692914
			-0.016182  0.587504  0.809059
			 0.165532  0.686048  0.708475
			 0.025591  0.591356  0.806004
			-0.388667  0.289795  0.874618
			-0.346322  0.323627  0.880526
			-0.300314  0.371432  0.878550
			-0.017501  0.611135  0.791333
			-0.165781  0.512746  0.842382
			-0.246321  0.421626  0.872673
			 0.116758  0.628576  0.768934
			 0.013978  0.589360  0.807750
			 0.073794  0.625126  0.777028
			 0.036345  0.584718  0.810422
			-0.478866  0.275060  0.833684
			-0.546697  0.214206  0.809468
			-0.605473  0.165942  0.778374
			-0.639534  0.125425  0.758462
			-0.723408  0.082570  0.685466
			-0.786075 -0.022058  0.617738
			-0.835040 -0.539210 -0.109364
			-0.670365 -0.615916 -0.413832
			-0.659923 -0.608455 -0.440776
			-0.653906 -0.632565 -0.415052
			-0.903717 -0.425972  0.042922
			-0.899334 -0.436306  0.028909
			-0.916455 -0.271875  0.293588
			-0.870686 -0.120990  0.476727
			-0.867525 -0.493705 -0.060471
			 0.925483  0.256145 -0.279053
			 0.896939  0.418513 -0.142646
			 0.918053  0.307606 -0.250113
			 0.899792  0.392801 -0.189950
			 0.886258  0.168828 -0.431328
			 0.899448  0.199850 -0.388656
			 0.883113  0.113442 -0.455239
			 0.910100  0.222568 -0.349544
			 0.839688  0.456051 -0.294860
			 0.818953  0.570219 -0.064543
			 0.818142  0.560298 -0.129264
			 0.845893  0.351807 -0.400870
			 0.879315  0.402677 -0.254276
			 0.844752  0.223365 -0.486315
			 0.868745  0.447550 -0.212087
			 0.857656  0.280500 -0.430982
			 0.857629  0.276553 -0.433580
			 0.878937  0.284486 -0.382802
			 0.420583  0.692046  0.586670
			 0.527681  0.707040  0.470793
			 0.727610  0.677685  0.106424
			 0.581771  0.705331  0.405033
			 0.313260  0.709693  0.631034
			 0.889910 -0.093943 -0.446357
			 0.891787  0.077601 -0.445752
			 0.885236 -0.166640 -0.434267
			 0.840212 -0.269760 -0.470398
			 0.927501 -0.244205 -0.283031
			 0.992732 -0.073005 -0.095677
			 0.981690 -0.160151 -0.103129
			 0.519763  0.833981 -0.185265
			 0.783325  0.548848 -0.291836
			 0.984782 -0.032392 -0.170748
			 0.962084  0.045286 -0.268967
			 0.883083  0.226015 -0.411196
			 0.865022  0.352897 -0.356651
			 0.722135  0.586642 -0.366569
			 0.569800  0.708350 -0.416615
			 0.695166  0.671965 -0.255356
			 0.936411  0.322497 -0.138314
			 0.976249  0.207505 -0.062282
			 0.655190  0.688496 -0.310965
			 0.494037  0.815053 -0.302681
			 0.494352  0.745285 -0.447399
			 0.450318  0.739254 -0.500717
			-0.764573 -0.641359 -0.063923
			-0.830408 -0.557015  0.012529
			-0.881068 -0.446628  0.155698
			-0.963757 -0.122031  0.237234
			-0.883537 -0.466875 -0.037275
			-0.904077 -0.426807 -0.021937
			-0.931030 -0.335942 -0.142572
			-0.914986 -0.310744 -0.257370
			-0.982625 -0.184903 -0.016120
			-0.993157 -0.041480 -0.109172
			-0.983906  0.139891 -0.111177