<?xml version="1.0"?>
<VTKFile type="PolyData" version="0.1" byte_order="LittleEndian" compressor="vtkZLibDataCompressor">
	<PolyData>
		<Piece NumberOfPoints="2408" NumberOfVerts="0" NumberOfLines="0" NumberOfStrips="0" NumberOfPolys="4812">
		<PointData Normals="Normals">
		<DataArray type="Float32" Name="Normals" NumberOfComponents="3" format="ascii">
			-0.956136  0.281881  0.079668
			-0.965163  0.233625  0.117815
			-0.934504  0.304532  0.184291
			-0.936471  0.220199  0.273010
			-0.964457  0.262101  0.033549
			-0.957110  0.277082  0.084652
			-0.902833  0.347519 -0.253225
			-0.910267  0.348767 -0.223105
			-0.948222  0.315025  0.040418
			-0.909975  0.355079 -0.214160
			-0.914199  0.404175  0.029703
			-0.980290  0.189047  0.057379
			-0.996758  0.010382  0.079785
			-0.990752  0.102107  0.089358
			-0.934941  0.344845  0.083465
			-0.946709  0.229311  0.226182
			-0.947189  0.238986  0.213821
			-0.993148  0.112725  0.030827
			-0.895897  0.332887 -0.294203
			-0.951946  0.256513 -0.167334
			-0.930629  0.360713 -0.061769
			-0.954863  0.297047 -0.000418
			-0.951938  0.303636 -0.040242
			-0.814329  0.386627 -0.432883
			-0.784319  0.387733 -0.484260
			-0.806514  0.428900 -0.406915
			-0.986686  0.152665 -0.056078
			-0.949918  0.300579 -0.085485
			-0.983441  0.162973  0.079274
			-0.977236  0.209287  0.034758
			-0.881997  0.460637 -0.099468
			-0.941996  0.320240  0.100451
			-0.993413 -0.001876  0.114576
			-0.984860 -0.063515  0.161295
			-0.975830 -0.112591  0.187293
			-0.972220  0.199323  0.122714
			-0.904347  0.217121  0.367443
			-0.963100  0.221683  0.152627
			-0.999054  0.036731  0.023276
			-0.957940  0.178601 -0.224619
			-0.992706  0.049068 -0.110123
			-0.806800  0.350062 -0.475952
			-0.719014  0.396811 -0.570579
			-0.864942  0.302550 -0.400423
			-0.888601  0.355951 -0.289287
			-0.943689  0.329152  0.033307
			-0.899246  0.356671 -0.253262
			-0.948361  0.315042 -0.036884
			-0.634334  0.390882 -0.666957
			-0.600004  0.396425 -0.694869
			-0.590187  0.408029 -0.696558
			-0.807679  0.377876 -0.452620
			-0.663352  0.328471 -0.672362
			-0.995286  0.096378  0.010819
			-0.998662 -0.045379  0.024795
			-0.999867  0.006247  0.015079
			-0.999284 -0.017401  0.033607
			-0.930893  0.333754 -0.148481
			-0.916853  0.392889 -0.070837
			-0.986835  0.114493  0.114231
			-0.974820  0.205944  0.085513
			-0.890471  0.420551 -0.173774
			-0.963701  0.255156 -0.078584
			-0.998528 -0.033494  0.042668
			-0.900057  0.411803 -0.142530
			-0.952672  0.292385 -0.083225
			-0.974989  0.218420 -0.041107
			-0.959752 -0.202141  0.194977
			-0.905707 -0.271438  0.325600
			-0.968576 -0.200267  0.147494
			-0.922877 -0.242465  0.299179
			-0.861734 -0.308323  0.402928
			-0.997368 -0.050794  0.051731
			-0.945289  0.296019  0.137118
			-0.883915  0.326325  0.334971
			-0.908762  0.177432  0.377715
			-0.913713  0.122929  0.387319
			-0.870902  0.219389  0.439770
			-0.844791  0.223243  0.486303
			-0.961680  0.193452 -0.194287
			-0.984233  0.142393  0.104926
			-0.999968  0.002239  0.007717
			-0.998450  0.035989 -0.042444
			-0.971719  0.082011 -0.221444
			-0.897970  0.219212 -0.381570
			-0.826020  0.337418 -0.451487
			-0.995372 -0.008551 -0.095714
			-0.979755  0.058249 -0.191540
			-0.620738  0.480844 -0.619253
			-0.668373  0.383025 -0.637628
			-0.737030  0.386929 -0.554141
			-0.447867  0.489421 -0.748253
			-0.485182  0.438219 -0.756679
			-0.528698  0.365778 -0.765954
			-0.907299  0.317391 -0.275811
			-0.905606  0.172402 -0.387500
			-0.342231  0.298751 -0.890857
			-0.435629  0.266993 -0.859617
			-0.390182  0.398023 -0.830262
			-0.351811  0.447152 -0.822365
			-0.308935  0.558428 -0.769882
			-0.748668  0.175438 -0.639311
			-0.424130  0.199743 -0.883299
			-0.989077 -0.047925  0.139388
			-0.994547 -0.056375  0.087734
			-0.970835 -0.233260  0.055403
			-0.959144 -0.281519  0.028122
			-0.940201 -0.309550  0.142131
			-0.969560 -0.178329  0.167789
			-0.996267 -0.082821 -0.024358
			-0.985335 -0.170009  0.014538
			-0.942198 -0.334313  0.022326
			-0.979189 -0.197851  0.045220
			-0.814872  0.505792 -0.283123
			-0.857942  0.331605 -0.392395
			-0.962576  0.223554 -0.153204
			-0.837475  0.540651 -0.079576
			-0.975382 -0.007051  0.220410
			-0.940060  0.016295  0.340619
			-0.918256  0.140733  0.370136
			-0.902414  0.256360  0.346308
			-0.921122  0.358429  0.151862
			-0.950272  0.295841 -0.097275
			-0.954249 -0.273952  0.119826
			-0.863410  0.489563 -0.121865
			-0.940154  0.336518  0.053536
			-0.948681  0.313531  0.041277
			-0.848331 -0.388194  0.360054
			-0.871479 -0.418225  0.256150
			-0.695310 -0.464930  0.548073
			-0.774208 -0.432671  0.461950
			-0.860702 -0.397098  0.318600
			-0.797351 -0.496800  0.342667
			-0.909475 -0.373735  0.182148
			-0.983817 -0.167696  0.063109
			-0.996974 -0.073246  0.026038
			-0.747252 -0.495659  0.442648
			-0.624618 -0.548391  0.555985
			-0.895111  0.418507  0.153711
			-0.872545  0.366511  0.323010
			-0.901947  0.306705  0.304012
			-0.962590  0.221832  0.155601
			-0.913774  0.260120  0.312017
			-0.902655  0.290376  0.317641
			-0.882062  0.207122  0.423163
			-0.844462  0.369254  0.387990
			-0.843869  0.335828  0.418456
			-0.852033  0.180476  0.491394
			-0.875055  0.182688  0.448222
			-0.935850  0.124379 -0.329719
			-0.971949  0.114323 -0.205537
			-0.931020  0.043704 -0.362342
			-0.973194  0.175032 -0.149189
			-0.999641 -0.016219  0.021306
			-0.961278  0.067688 -0.267139
			-0.893220  0.065386 -0.444841
			-0.788437  0.263359 -0.555886
			-0.987591  0.028481 -0.154447
			-0.936513  0.016609 -0.350240
			-0.997539 -0.068634  0.014321
			-0.968882 -0.241290  0.055200
			-0.957696 -0.104850 -0.268000
			-0.985743 -0.125143 -0.112473
			-0.473770  0.551795 -0.686341
			-0.772168  0.232163 -0.591487
			-0.625457  0.381220 -0.680790
			-0.323639  0.505845 -0.799612
			-0.239127  0.468368 -0.850558
			-0.053556  0.440910 -0.895952
			-0.246871  0.370195 -0.895550
			-0.223489  0.306573 -0.925238
			-0.498488  0.317628 -0.806612
			-0.594376  0.371777 -0.713091
			-0.901746 -0.004132 -0.432246
			-0.878750 -0.004901 -0.477258
			-0.964607 -0.016245 -0.263191
			-0.070143  0.391017 -0.917707
			-0.080753  0.201030 -0.976251
			-0.068017  0.247998 -0.966370
			-0.174493  0.224759 -0.958664
			-0.229286  0.470864 -0.851889
			-0.101990  0.499596 -0.860234
			-0.367916  0.546247 -0.752497
			-0.095690  0.581819 -0.807669
			 0.199527  0.520336 -0.830325
			-0.719101  0.085740 -0.689596
			-0.506790  0.126739 -0.852702
			-0.272876  0.084904 -0.958295
			-0.134762  0.140213 -0.980907
			-0.924399 -0.185971  0.333019
			-0.951961 -0.245125  0.183534
			-0.889148 -0.330359  0.316668
			-0.936505 -0.276670  0.215434
			-0.921589 -0.384288  0.054742
			-0.867113 -0.483647  0.119168
			-0.893476 -0.447727  0.035240
			-0.856428 -0.514335  0.044612
			-0.792272 -0.608291  0.047826
			-0.777024 -0.575017  0.256102
			-0.865886 -0.423089  0.266902
			-0.901238 -0.427618  0.070093
			-0.763828 -0.640525  0.079343
			-0.685603 -0.725792  0.056346
			-0.782739  0.383083 -0.490477
			-0.903869  0.403435 -0.142338
			-0.853133  0.307401 -0.421508
			-0.915486 -0.137087  0.378277
			-0.863557 -0.155697  0.479613
			-0.844491  0.039387  0.534119
			-0.812523  0.172416  0.556847
			-0.853771  0.313824  0.415438
			-0.882246  0.396063  0.254512
			-0.833185  0.552977  0.004278
			-0.823144 -0.543606  0.164096
			-0.947488  0.319738 -0.005831
			-0.897394  0.257264 -0.358468
			-0.953769  0.281996  0.103937
			-0.944843  0.326373 -0.027436
			-0.667994 -0.558496  0.491799
			-0.745395 -0.580085  0.328464
			-0.454244 -0.684024  0.570766
			-0.585473 -0.575198  0.571286
			-0.662310 -0.603023  0.444646
			-0.719352 -0.598970  0.351805
			-0.533959 -0.705288  0.466323
			-0.873265 -0.453417  0.178385
			-0.937739 -0.329445  0.110055
			-0.977407 -0.205046  0.051299
			-0.492837 -0.718862  0.490253
			-0.868961  0.485670  0.095035
			-0.840622  0.495533  0.218636
			-0.955009  0.296494  0.006982
			-0.953150  0.298966  0.046102
			-0.967498  0.232344  0.099824
			-0.963352  0.157464  0.217160
			-0.922817  0.117611  0.366846
			-0.948718  0.138571  0.284133
			-0.821477  0.476995  0.312493
			-0.854956  0.395392  0.335732
			-0.903383  0.067638  0.423466
			-0.875101 -0.020995  0.483484
			-0.865847  0.259061  0.428015
			-0.876670  0.116053  0.466884
			-0.965765 -0.040475 -0.256242
			-0.985567 -0.034636 -0.165704
			-0.981421  0.158310 -0.108403
			-0.968248  0.214046 -0.129153
			-0.856053  0.058815 -0.513532
			-0.764089  0.043940 -0.643613
			-0.898004 -0.058060 -0.436141
			-0.784256  0.099554 -0.612399
			-0.885866 -0.451811  0.105396
			-0.788378 -0.591050  0.170647
			-0.876002 -0.467957  0.116780
			-0.969604 -0.244512 -0.009044
			-0.951610 -0.279575 -0.127576
			-0.922465 -0.231085 -0.309287
			-0.896273 -0.182792 -0.404081
			-0.715384  0.233010 -0.658736
			-0.121841  0.426035 -0.896465
			 0.105726  0.478680 -0.871601
			 0.186401  0.323141 -0.927812
			 0.327248  0.394617 -0.858595
			-0.018816  0.326155 -0.945129
			-0.441905  0.296138 -0.846772
			-0.403227  0.276227 -0.872414
			 0.130306  0.242631 -0.961327
			-0.187198  0.258402 -0.947726
			-0.631562  0.232822 -0.739543
			-0.768951 -0.001890 -0.639305
			-0.657635 -0.069806 -0.750096
			-0.831392 -0.062725 -0.552134
			-0.984380 -0.107517 -0.139414
			-0.910849 -0.091234 -0.402531
			-0.789963 -0.163163 -0.591047
			 0.107342  0.493684 -0.862991
			 0.212143  0.237429 -0.947957
			 0.272688  0.413000 -0.868949
			 0.161357  0.143664 -0.976383
			 0.103663  0.154167 -0.982592
			 0.111495  0.479709 -0.870315
			 0.222314  0.455538 -0.862011
			 0.376089  0.436814 -0.817160
			-0.528680  0.009138 -0.848772
			-0.277688 -0.025452 -0.960334
			-0.163903 -0.004624 -0.986466
			-0.049615  0.018894 -0.998590
			 0.051278  0.050209 -0.997421
			-0.804752 -0.361330  0.470971
			-0.815917 -0.490333  0.306356
			-0.886210 -0.381835  0.262363
			-0.695349 -0.560039  0.450384
			-0.828836 -0.464940  0.311226
			-0.787960 -0.608460  0.094317
			-0.619702 -0.753837  0.218401
			-0.644538 -0.755593  0.116836
			-0.552933 -0.827991  0.093250
			-0.631149 -0.700322  0.333468
			-0.593749 -0.788942  0.158217
			-0.490212 -0.871021  0.031851
			-0.361784 -0.931570 -0.035900
			-0.802962  0.567036 -0.183637
			-0.898412  0.255240 -0.357362
			-0.864538  0.456021 -0.211229
			-0.746715 -0.153076  0.647290
			-0.711775 -0.382027  0.589434
			-0.682641 -0.035150  0.729908
			-0.691269  0.116396  0.713161
			-0.742899  0.233447  0.627379
			-0.736306  0.378075  0.561171
			-0.836161  0.512660  0.194973
			-0.792638  0.480275  0.375582
			 0.968858  0.244508 -0.039126
			-0.782231  0.620413  0.056601
			 0.769323  0.626971 -0.122676
			-0.799124  0.578596  0.163178
			-0.963575  0.216955 -0.156375
			-0.879597  0.465186 -0.099561
			-0.369651 -0.664724  0.649231
			-0.361643 -0.836008  0.412680
			-0.299797 -0.797281  0.523893
			-0.254487 -0.788255  0.560259
			-0.422631 -0.660338  0.620756
			-0.381102 -0.663107  0.644244
			-0.678272 -0.659174  0.324711
			-0.523084 -0.699217  0.487318
			-0.797841 -0.573126  0.187017
			-0.790275  0.603609  0.105459
			-0.777204  0.572599  0.260931
			-0.971635  0.235714 -0.019064
			-0.904319  0.388620 -0.176581
			-0.950313  0.233893 -0.205424
			-0.931283  0.303323 -0.201760
			-0.961446  0.214159 -0.172505
			-0.974943  0.082556 -0.206568
			-0.999054  0.037872  0.021382
			-0.968177 -0.105989  0.226717
			-0.941680 -0.159783  0.296155
			-0.926091 -0.143975  0.348749
			-0.719735  0.617041  0.318186
			-0.655939  0.627456  0.419574
			-0.739650  0.374160  0.559394
			-0.873881  0.282765  0.395443
			-0.918359  0.319495  0.233539
			-0.874288 -0.182393  0.449837
			-0.926193 -0.026340  0.376129
			-0.745822 -0.195764  0.636730
			-0.841109 -0.008054  0.540806
			-0.868328  0.221933  0.443567
			-0.805260  0.221365  0.550049
			-0.856120  0.086798  0.509436
			-0.917686 -0.007216  0.397241
			-0.853708 -0.195693  0.482584
			-0.992189 -0.021650 -0.122850
			-0.962658 -0.106494 -0.248894
			-0.994087  0.096543 -0.049704
			-0.970410  0.240930  0.016067
			-0.798858  0.091807 -0.594472
			-0.703817 -0.091374 -0.704480
			-0.600625  0.034815 -0.798772
			-0.485053 -0.074673 -0.871291
			-0.527822  0.162316 -0.833701
			-0.802107 -0.204626 -0.561029
			-0.676506 -0.711445  0.190223
			-0.674720 -0.705917  0.215487
			-0.556996 -0.787067  0.265106
			-0.848544 -0.526703  0.050573
			-0.905732 -0.384355 -0.178663
			-0.821685 -0.350423 -0.449485
			-0.848866 -0.410150 -0.333474
			-0.874272 -0.405654 -0.266635
			 0.418392  0.456032 -0.785482
			 0.257250  0.274150 -0.926642
			 0.382577  0.280151 -0.880426
			 0.415392  0.302440 -0.857892
			 0.400356  0.410889 -0.819076
			-0.036376  0.222480 -0.974259
			 0.275495  0.201292 -0.939991
			 0.147856  0.208585 -0.966763
			 0.335211  0.192203 -0.922329
			-0.338084  0.109500 -0.934724
			-0.375793 -0.127516 -0.917889
			-0.545741 -0.132715 -0.827377
			-0.675093 -0.129858 -0.726214
			-0.570839 -0.056049 -0.819147
			-0.789551 -0.044034 -0.612103
			-0.598610 -0.150894 -0.786700
			 0.410768  0.418977 -0.809771
			 0.465913  0.273143 -0.841616
			 0.369522  0.126238 -0.920607
			 0.190847 -0.025200 -0.981296
			-0.289156 -0.087515 -0.953273
			 0.049998 -0.058861 -0.997013
			-0.159410  0.034259 -0.986618
			-0.270216 -0.035918 -0.962129
			 0.052783 -0.090766 -0.994472
			-0.594362 -0.575072  0.562163
			-0.712702 -0.612616  0.341698
			-0.512647 -0.734451  0.444719
			-0.466059 -0.704125  0.535720
			-0.484474 -0.859115  0.164946
			-0.473047 -0.839199  0.268274
			-0.514125 -0.775956  0.365470
			-0.134765 -0.988181  0.073058
			-0.563629 -0.825882 -0.015529
			 0.968246 -0.249361 -0.017853
			 0.751142 -0.639791 -0.162648
			-0.452968 -0.856489 -0.247481
			 0.293062  0.943840 -0.152580
			-0.820463  0.565596 -0.083319
			-0.559542 -0.375098  0.739063
			-0.575680 -0.398556  0.713965
			-0.590205 -0.348011  0.728386
			-0.506644 -0.568133  0.648489
			-0.535292 -0.188716  0.823316
			-0.558750 -0.007639  0.829301
			-0.595211  0.155428  0.788395
			-0.651613  0.270046  0.708855
			-0.584943  0.279274  0.761478
			-0.639010  0.467553  0.610787
			-0.702235  0.606330  0.373134
			-0.689385  0.724375 -0.005473
			-0.692607  0.683685  0.229933
			-0.339512 -0.577416  0.742511
			-0.150327 -0.682224  0.715522
			-0.210341 -0.968732  0.131590
			 0.014759 -0.943296  0.331625
			-0.403138 -0.790236  0.461526
			-0.091570 -0.863663  0.495683
			-0.040581 -0.852859  0.520561
			-0.074843 -0.850864  0.520028
			-0.184160 -0.835619  0.517519
			-0.418847 -0.678907  0.603036
			-0.551985 -0.557515  0.620072
			-0.595946 -0.755312  0.272675
			-0.721181  0.651957  0.234200
			-0.767581  0.457756 -0.448641
			-0.774423  0.356338 -0.522773
			-0.847516  0.353009 -0.396361
			-0.769673  0.472746 -0.429086
			-0.840068  0.331641 -0.429302
			-0.734851  0.270035 -0.622154
			-0.810713  0.237852 -0.534949
			-0.920307  0.171274 -0.351712
			-0.915292  0.091375 -0.392291
			-0.974408  0.066479 -0.214732
			 0.167721  0.288284 -0.942742
			-0.999107 -0.035188 -0.023370
			-0.994801 -0.087430  0.052220
			-0.980563 -0.116481  0.157890
			-0.941874 -0.233942  0.241133
			-0.933015 -0.254840  0.254047
			-0.939652 -0.300079  0.164335
			-0.844505 -0.270811  0.462031
			-0.888801 -0.370196  0.270163
			-0.899199 -0.028190  0.436630
			-0.655861  0.629614  0.416451
			-0.489689  0.721356  0.489746
			-0.563353  0.569091  0.598973
			-0.632865  0.679648  0.370892
			-0.655613  0.451733  0.605070
			-0.760299  0.223284  0.609992
			-0.951251 -0.033586  0.306582
			-0.950587 -0.236124  0.201568
			-0.738699 -0.400436  0.542195
			-0.861211 -0.324240  0.391387
			-0.828387  0.005800  0.560126
			-0.887137 -0.053568  0.458387
			-0.913546 -0.268639  0.305396
			-0.862663 -0.219327  0.455751
			-0.782181 -0.488973  0.386132
			-0.905151 -0.075222 -0.418382
			-0.952369  0.039449 -0.302384
			-0.865775 -0.063132 -0.496436
			-0.843154  0.208526 -0.495589
			-0.940397  0.277304 -0.196864
			-0.615727 -0.269989 -0.740261
			-0.448336 -0.219508 -0.866494
			-0.318307 -0.070980 -0.945327
			-0.241584 -0.154803 -0.957953
			-0.223926 -0.091626 -0.970290
			-0.606554 -0.400445 -0.686831
			-0.696309 -0.399282 -0.596429
			-0.474045 -0.846759  0.241413
			-0.370937 -0.885292  0.280471
			-0.802429 -0.596731 -0.004593
			-0.599196 -0.788811  0.136899
			-0.405633 -0.866558  0.290756
			-0.210852 -0.910372  0.356039
			-0.617817 -0.565727 -0.546127
			-0.740586 -0.511055 -0.436298
			-0.685113 -0.661384 -0.305271
			-0.742783 -0.653994 -0.143406
			-0.806688 -0.579245 -0.117178
			 0.637058  0.361224 -0.680936
			 0.529714  0.511821 -0.676345
			 0.386843  0.591228 -0.707673
			 0.408698  0.526494 -0.745500
			 0.372199  0.081875 -0.924535
			 0.415227  0.080548 -0.906145
			 0.417061  0.260185 -0.870841
			 0.469199  0.148700 -0.870483
			 0.429333  0.333934 -0.839143
			 0.411207  0.316760 -0.854735
			-0.123059  0.086009 -0.988665
			 0.282715  0.217042 -0.934326
			 0.026005  0.082330 -0.996266
			 0.523248  0.137366 -0.841036
			 0.461265  0.130341 -0.877637
			-0.450310 -0.079453 -0.889330
			-0.397504 -0.014857 -0.917480
			-0.672891 -0.019696 -0.739480
			 0.358941  0.296327 -0.885072
			 0.541717  0.370809 -0.754350
			 0.549863  0.248241 -0.797513
			 0.473675  0.431038 -0.768010
			 0.379777 -0.084820 -0.921181
			 0.220228 -0.120118 -0.968024
			 0.183636 -0.135307 -0.973637
			 0.123783 -0.148538 -0.981129
			 0.113600 -0.143650 -0.983087
			 0.161684 -0.073019 -0.984138
			 0.083731 -0.096080 -0.991846
			-0.067038 -0.006659 -0.997728
			 0.083412 -0.051792 -0.995168
			-0.285115  0.173133 -0.942727
			-0.386686  0.210440 -0.897880
			-0.383825  0.043897 -0.922362
			-0.189891  0.089416 -0.977725
			-0.107762 -0.003651 -0.994170
			-0.397172 -0.702702  0.590308
			-0.448920 -0.766769  0.458842
			-0.328282 -0.714338  0.618022
			-0.381626 -0.730564  0.566249
			-0.328801 -0.940298  0.087925
			-0.363035 -0.916775  0.166521
			-0.415556 -0.827753  0.377012
			-0.359473 -0.915949  0.178372
			 0.780062 -0.624224  0.042987
			-0.615806 -0.782837 -0.089154
			 0.928448 -0.362066 -0.083016
			 0.973113 -0.226073 -0.044076
			 0.054826 -0.991069 -0.121556
			-0.454841 -0.559017  0.693267
			-0.354670 -0.636356  0.685025
			-0.454972 -0.452556  0.766938
			-0.326778 -0.757206  0.565558
			-0.465810 -0.089561  0.880341
			-0.440207 -0.232121  0.867374
			-0.514040  0.113782  0.850186
			-0.507592  0.296912  0.808822
			-0.695347  0.555434  0.456054
			-0.628660  0.454536  0.631018
			-0.287744 -0.548193  0.785295
			-0.547287 -0.460242  0.699039
			-0.232940 -0.685994  0.689312
			-0.423489 -0.894469  0.143463
			-0.326730 -0.874010  0.359659
			-0.031781 -0.906605  0.420782
			 0.131107 -0.890691  0.435293
			 0.067894 -0.904340  0.421378
			-0.257911 -0.831887  0.491372
			-0.068784 -0.903381  0.423288
			-0.547896 -0.701649  0.455521
			-0.764718 -0.495964  0.411372
			-0.608573  0.381029 -0.696028
			-0.630837  0.350340 -0.692320
			-0.554348  0.247763 -0.794551
			-0.672822  0.254833 -0.694529
			-0.820177  0.153657 -0.551090
			-0.703772  0.080151 -0.705890
			-0.683648  0.326200 -0.652855
			-0.529247  0.273866 -0.803053
			-0.782111  0.061820 -0.620066
			-0.889175  0.044199 -0.455427
			-0.946845  0.060229 -0.316002
			 0.872959  0.107705 -0.475755
			-0.940055  0.155915 -0.303293
			-0.990355  0.095036 -0.100825
			 0.143216  0.223709 -0.964076
			-0.997823  0.063388  0.018189
			-0.978840 -0.114096  0.169865
			-0.990497  0.112809  0.078672
			-0.953113 -0.269176  0.138277
			-0.864787 -0.433912  0.252714
			-0.923307 -0.064384  0.378627
			-0.905496 -0.358003  0.227840
			-0.912074 -0.279502  0.299999
			-0.354026  0.695426  0.625339
			-0.486085  0.714245  0.503563
			-0.452145  0.508502  0.732796
			-0.657206  0.267202  0.704758
			-0.605786  0.330940  0.723534
			-0.698241  0.598381  0.392938
			-0.670500  0.230635  0.705151
			-0.720668 -0.034051  0.692444
			-0.879125 -0.416159  0.232274
			-0.784126 -0.458151  0.418620
			-0.863242 -0.430831  0.263054
			-0.694196 -0.140625  0.705916
			-0.712776 -0.229857  0.662659
			-0.822128 -0.258946  0.507003
			-0.827116 -0.393161  0.401627
			-0.750525 -0.016698 -0.660631
			-0.655979  0.100965 -0.747996
			-0.463612 -0.351221 -0.813454
			-0.321694 -0.327307 -0.888473
			-0.041062 -0.267027 -0.962814
			-0.007418 -0.115103 -0.993326
			-0.499388 -0.571964 -0.650745
			-0.435363 -0.523349 -0.732506
			-0.188885 -0.935534  0.298494
			 0.020217 -0.927848  0.372410
			-0.202530 -0.964816  0.167666
			-0.544228 -0.838937  0.000300
			-0.075019 -0.938708  0.336451
			 0.065917 -0.909521  0.410397
			-0.294405 -0.770210 -0.565776
			-0.511340 -0.711821 -0.481500
			-0.568145 -0.685855 -0.454769
			-0.652802 -0.565341 -0.504221
			-0.373319 -0.914632 -0.155180
			 0.327186  0.437221 -0.837727
			 0.380999  0.536296 -0.753144
			 0.309521  0.465242 -0.829305
			 0.411762 -0.028827 -0.910835
			 0.424435  0.187391 -0.885856
			 0.507609  0.058150 -0.859623
			 0.402364  0.417455 -0.814761
			 0.190987 -0.044166 -0.980599
			 0.379569 -0.043657 -0.924133
			 0.526472 -0.169252 -0.833175
			 0.666105 -0.187305 -0.721956
			 0.643857  0.052458 -0.763346
			 0.598364  0.500100 -0.625988
			 0.561766  0.185616 -0.806204
			 0.471462  0.433078 -0.768223
			 0.513238  0.566319 -0.644880
			 0.204519 -0.249501 -0.946531
			 0.375658 -0.178810 -0.909345
			 0.180249 -0.173212 -0.968250
			 0.103053 -0.160692 -0.981610
			 0.068992 -0.084964 -0.993992
			 0.090211 -0.141540 -0.985814
			-0.032044 -0.076429 -0.996560
			-0.250987  0.160846 -0.954533
			-0.430980  0.249437 -0.867201
			-0.251445  0.004336 -0.967862
			-0.139010 -0.056539 -0.988676
			-0.249689 -0.711064  0.657300
			-0.343630 -0.769458  0.538380
			-0.242517 -0.674187  0.697609
			-0.357086 -0.671751  0.649030
			-0.202263 -0.780624  0.591368
			-0.119354 -0.743327  0.658194
			-0.561952 -0.813544  0.149523
			-0.108464 -0.993184 -0.042687
			-0.126785 -0.991338  0.034279
			-0.107724 -0.986534  0.123072
			-0.276234 -0.955757  0.101109
			-0.267688 -0.888151  0.373538
			-0.188974 -0.972249  0.137917
			 0.391337 -0.906206 -0.160145
			-0.774735 -0.607298  0.175994
			-0.676787 -0.708444  0.200166
			-0.320491 -0.744338  0.585873
			-0.354318 -0.651254  0.671064
			-0.174481 -0.747538  0.640892
			-0.232094 -0.817578  0.526971
			-0.333507 -0.463932  0.820695
			-0.448300 -0.125943  0.884966
			-0.344004 -0.272620  0.898521
			-0.480183  0.000944  0.877168
			-0.411858  0.121439  0.903120
			-0.270554  0.218012  0.937695
			-0.283721  0.283709  0.915976
			-0.501322  0.323217  0.802625
			-0.701153  0.396947  0.592299
			-0.689341  0.467727  0.553209
			-0.686504 -0.597673  0.414125
			 0.133961 -0.905697  0.402203
			 0.206795 -0.894556  0.396238
			 0.147138 -0.903411  0.402741
			 0.094198 -0.974185  0.205160
			-0.024640 -0.952849  0.302443
			-0.119772 -0.925444  0.359455
			-0.279187 -0.889912  0.360709
			-0.433838  0.142733 -0.889613
			-0.500661 -0.006232 -0.865621
			-0.628841  0.031718 -0.776887
			-0.567066 -0.033907 -0.822974
			-0.715015 -0.017831 -0.698881
			-0.905639  0.070581 -0.418133
			-0.761000  0.010437 -0.648668
			-0.969235  0.109752 -0.220314
			-0.966028  0.170048 -0.194613
			-0.981959  0.185546 -0.036455
			-0.973049  0.207951 -0.099655
			-0.943896  0.090399 -0.317629
			-0.979679  0.184792 -0.077977
			-0.954838 -0.028876  0.295722
			-0.951336  0.183539  0.247535
			-0.963881  0.248704  0.095283
			-0.912675 -0.238905  0.331586
			-0.917706 -0.303364  0.256486
			-0.905704  0.053532  0.420517
			-0.400625  0.595900  0.695991
			-0.581705  0.515706  0.629020
			-0.401677  0.609171  0.683788
			-0.668687  0.556456  0.493167
			-0.174435  0.693653  0.698869
			-0.593924  0.309146  0.742753
			-0.691825  0.126383  0.710919
			-0.664014  0.007597  0.747682
			-0.663920 -0.018341  0.747579
			-0.658266  0.129084  0.741635
			-0.611621 -0.132935  0.779903
			-0.864189 -0.387313  0.321196
			-0.822801 -0.283463  0.492592
			-0.718387 -0.400282  0.568942
			-0.766506 -0.223060  0.602256
			-0.628557 -0.237149  0.740727
			-0.802647 -0.133276  0.581373
			-0.749650 -0.009209  0.661771
			-0.411554 -0.441600 -0.797254
			-0.220560 -0.565433 -0.794757
			-0.378146 -0.448720 -0.809726
			-0.118748 -0.450686 -0.884749
			 0.134803 -0.558922 -0.818190
			 0.205878 -0.335162 -0.919391
			-0.300157 -0.722966 -0.622274
			-0.272177 -0.706022 -0.653798
			 0.188035 -0.893394  0.408031
			 0.035042 -0.992969 -0.113073
			 0.181912 -0.940479  0.287066
			-0.145680 -0.901904 -0.406627
			-0.036234 -0.887430 -0.459517
			-0.481148 -0.738120 -0.472944
			-0.286691 -0.889761 -0.355153
			 0.529285 -0.143353 -0.836246
			 0.461100 -0.111735 -0.880285
			 0.610457  0.010173 -0.791984
			 0.564643  0.227040 -0.793493
			 0.483072 -0.054838 -0.873861
			 0.471090  0.378372 -0.796812
			 0.719592 -0.262808 -0.642744
			 0.613193 -0.096779 -0.783982
			 0.327533 -0.316469 -0.890264
			 0.456143 -0.421862 -0.783560
			 0.607970 -0.533685 -0.587837
			 0.642455 -0.548527 -0.535135
			 0.599508  0.436052 -0.671155
			 0.593485  0.601713 -0.534525
			 0.547793  0.556196 -0.624955
			 0.545216  0.145692 -0.825538
			 0.256711 -0.300513 -0.918581
			 0.415407 -0.235236 -0.878693
			 0.075326 -0.279329 -0.957236
			 0.257743 -0.377591 -0.889378
			 0.049781 -0.103637 -0.993369
			 0.104310 -0.111372 -0.988289
			 0.063825 -0.106659 -0.992245
			 0.078328 -0.095746 -0.992319
			-0.011146 -0.139158 -0.990208
			-0.167536 -0.075231 -0.982991
			 0.060510 -0.121507 -0.990745
			-0.038387 -0.142008 -0.989121
			 0.029513 -0.139366 -0.989801
			-0.126614 -0.097990 -0.987100
			-0.176491 -0.086953 -0.980454
			-0.338828 -0.088780 -0.936650
			-0.447300 -0.037967 -0.893578
			-0.211447 -0.758930  0.615886
			-0.216170 -0.839351  0.498759
			-0.262487 -0.692827  0.671633
			 0.010695 -0.659723  0.751433
			-0.140999 -0.748520  0.647949
			-0.101733 -0.834918  0.540891
			 0.014513 -0.743312  0.668787
			 0.026253 -0.729733  0.683228
			-0.028799 -0.995033 -0.095285
			-0.017080 -0.998323 -0.055308
			 0.046360 -0.998610  0.025056
			-0.124926 -0.945784  0.299811
			-0.246318 -0.752013  0.611395
			-0.125959 -0.617857  0.776136
			-0.143422 -0.482249  0.864214
			-0.347579 -0.189744  0.918252
			-0.256357 -0.381894  0.887940
			-0.305607  0.039892  0.951322
			-0.183060  0.125223  0.975094
			 0.129480  0.163000  0.978093
			-0.033192  0.266232  0.963337
			-0.491666  0.267392  0.828713
			-0.091115  0.169076  0.981382
			-0.249686  0.245259  0.936752
			-0.697670  0.340940  0.630093
			-0.510138  0.297005  0.807185
			-0.598499  0.427758  0.677364
			 0.335604 -0.883185  0.327650
			 0.206969 -0.922131  0.326861
			 0.306862 -0.920778  0.240841
			 0.151101 -0.988107  0.028508
			-0.501501 -0.074504 -0.861943
			-0.859060  0.103790 -0.501243
			-0.684680  0.014753 -0.728695
			-0.455478 -0.074919 -0.887089
			-0.932057  0.177600 -0.315796
			-0.936061  0.271013 -0.224367
			-0.955269  0.286876 -0.071860
			-0.934339  0.342786 -0.097508
			-0.947069  0.315792  0.057751
			-0.964693  0.235664 -0.117599
			-0.897358  0.191726  0.397481
			-0.890936  0.321572  0.320663
			-0.894638  0.377255  0.239377
			-0.898793 -0.000690  0.438372
			-0.883443 -0.143502  0.446022
			-0.803249  0.235586  0.547074
			-0.816539  0.293726  0.496979
			-0.118831  0.632056  0.765758
			-0.422335  0.483093  0.766977
			-0.628935  0.272962  0.727964
			-0.444706  0.404835  0.798965
			-0.444764  0.317138  0.837621
			-0.289550  0.346825  0.892117
			-0.205462  0.522352  0.827607
			 0.009393  0.475916  0.879440
			-0.748424 -0.163431  0.642769
			-0.678061 -0.190111  0.709993
			-0.649486  0.129466  0.749270
			-0.779374 -0.209703  0.590424
			-0.796057  0.038837  0.603974
			-0.802039 -0.320162  0.504212
			-0.742985 -0.366549  0.560013
			-0.694132 -0.056659  0.717615
			-0.716920  0.058336  0.694711
			-0.704214  0.112121  0.701079
			-0.600064  0.182305  0.778902
			-0.311207 -0.597302 -0.739176
			-0.020181 -0.810295 -0.585674
			 0.074867 -0.727586 -0.681919
			 0.373558 -0.651855 -0.659954
			 0.373455 -0.821474 -0.430944
			 0.370360 -0.457690 -0.808303
			 0.025317 -0.901589 -0.431853
			 0.137488 -0.941773 -0.306856
			 0.286869 -0.955663 -0.066442
			 0.412409 -0.884155  0.219521
			 0.251837 -0.914415 -0.316895
			 0.524908 -0.390477 -0.756307
			 0.533587 -0.499791 -0.682271
			 0.627080 -0.306330 -0.716194
			 0.652844 -0.138682 -0.744689
			 0.559466 -0.300507 -0.772459
			 0.641471 -0.006588 -0.767119
			 0.607159  0.280648 -0.743367
			 0.595854  0.448867 -0.665941
			 0.687595 -0.249535 -0.681869
			 0.648263 -0.495687 -0.577970
			 0.644905 -0.619789 -0.447168
			 0.655816 -0.617201 -0.434705
			 0.497889 -0.610090 -0.616358
			 0.561404 -0.675320 -0.478298
			 0.559058 -0.746067 -0.361716
			 0.629900 -0.700746 -0.334935
			 0.592322  0.443613 -0.672579
			 0.619940  0.561524 -0.548055
			 0.547212  0.137072 -0.825693
			 0.444662 -0.258464 -0.857597
			 0.034902 -0.539977 -0.840956