<?xml version="1.0"?>
<VTKFile type="PolyData" version="0.1" byte_order="LittleEndian" compressor="vtkZLibDataCompressor">
	<PolyData>
		<Piece NumberOfPoints="2838" NumberOfVerts="0" NumberOfLines="0" NumberOfStrips="0" NumberOfPolys="5672">
		<PointData Normals="Normals">
		<DataArray type="Float32" Name="Normals" NumberOfComponents="3" format="ascii">
			-0.895636 -0.252519 -0.366155
			-0.825426 -0.248454 -0.506895
			-0.814693 -0.365723 -0.450024
			-0.895190 -0.387451 -0.220264
			-0.803190 -0.192930 -0.563617
			-0.948312 -0.312821 -0.053355
			-0.965728 -0.170206 -0.195959
			-0.946952 -0.123574 -0.296668
			-0.741233 -0.197766 -0.641454
			-0.830875 -0.517994 -0.203293
			-0.761342 -0.428579 -0.486497
			-0.720047 -0.291062 -0.629933
			-0.887226 -0.461309 -0.004802
			-0.586354 -0.161863 -0.793719
			-0.688719 -0.236999 -0.685199
			-0.550460 -0.276487 -0.787749
			-0.867877 -0.161345 -0.469848
			-0.966361 -0.220721  0.132019
			-0.893703 -0.395477  0.211877
			-0.931922 -0.312339  0.184297
			-0.996003 -0.088907 -0.008582
			-0.997628 -0.060394 -0.033039
			-0.983065 -0.067399 -0.170411
			-0.954301 -0.097856 -0.282371
			-0.566241 -0.150244 -0.810431
			-0.778247 -0.612485 -0.138544
			-0.807474 -0.586178  0.066189
			-0.737479 -0.524142 -0.425910
			-0.732282 -0.367541 -0.573304
			-0.683184 -0.287348 -0.671335
			-0.615854 -0.250411 -0.747006
			-0.825887 -0.514797  0.229989
			-0.392362 -0.224413 -0.892015
			-0.615023 -0.267157 -0.741871
			-0.775421 -0.170408 -0.608016
			-0.444323 -0.322483 -0.835812
			-0.532127 -0.243325 -0.810946
			-0.925601 -0.082213 -0.369465
			-0.890596 -0.318944  0.324213
			-0.977647 -0.123289  0.170310
			-0.894187 -0.285716  0.344668
			-0.814808 -0.432987  0.385499
			-0.988089 -0.150727  0.030997
			-0.994206 -0.103980 -0.027261
			-0.971391 -0.131281 -0.197899
			-0.862324 -0.117848 -0.492453
			-0.497490 -0.099546 -0.861739
			-0.375314 -0.069698 -0.924274
			 0.747338 -0.663302 -0.038945
			-0.632135 -0.765876  0.117644
			-0.636302 -0.724750 -0.264304
			-0.770770 -0.573749  0.276994
			-0.700156 -0.566256 -0.434898
			-0.656336 -0.468189 -0.591627
			-0.588676 -0.449524 -0.671855
			-0.386255 -0.244584 -0.889374
			-0.389141 -0.111163 -0.914446
			-0.378997 -0.139062 -0.914890
			-0.309681 -0.339290 -0.888246
			-0.413815 -0.342196 -0.843599
			-0.391330 -0.229322 -0.891220
			-0.660717 -0.199694 -0.723585
			-0.801682 -0.085806 -0.591560
			-0.373327 -0.323532 -0.869456
			-0.633001 -0.149733 -0.759533
			-0.654511 -0.113226 -0.747526
			-0.652057 -0.083398 -0.753569
			-0.552309 -0.175227 -0.815016
			-0.922672 -0.299610  0.242713
			-0.739695 -0.613559  0.276401
			-0.836541 -0.517108  0.181106
			-0.967974 -0.247656 -0.041154
			-0.985248 -0.159362 -0.062364
			-0.977793 -0.167790 -0.125567
			-0.983807 -0.173581 -0.044642
			-0.984004 -0.168894 -0.056664
			-0.979680 -0.183184 -0.081680
			-0.977274 -0.180698 -0.110833
			-0.933440 -0.164839 -0.318618
			-0.783474 -0.038432 -0.620235
			-0.813791 -0.208100 -0.542622
			-0.685646 -0.184140 -0.704260
			-0.671679 -0.190263 -0.715994
			-0.725722 -0.077237 -0.683639
			 0.748072 -0.662835  0.032219
			 0.377738 -0.924271 -0.055114
			-0.587701 -0.784457  0.198079
			-0.712096 -0.692546  0.115322
			-0.661550 -0.688932  0.296183
			-0.681316 -0.710252 -0.177063
			-0.612802 -0.739954 -0.277384
			-0.597421 -0.650659 -0.468755
			-0.510733 -0.490009 -0.706430
			-0.315208 -0.411834 -0.855007
			-0.342530 -0.234947 -0.909655
			-0.302254 -0.274566 -0.912829
			-0.497992 -0.119247 -0.858943
			-0.466353 -0.161110 -0.869804
			-0.356749 -0.345686 -0.867889
			-0.516347 -0.190795 -0.834855
			-0.475207 -0.268837 -0.837798
			-0.690089 -0.108562 -0.715535
			-0.728496 -0.059855 -0.682430
			-0.305427 -0.230489 -0.923899
			-0.514160 -0.181767 -0.838213
			-0.513289 -0.022990 -0.857908
			-0.620770 -0.037854 -0.783079
			-0.861356 -0.491729  0.127549
			-0.894771 -0.444576 -0.041684
			-0.497564 -0.794015  0.349241
			-0.610649 -0.735895  0.292518
			-0.605524 -0.771575  0.194968
			-0.687975 -0.709124  0.154378
			-0.696885 -0.714922  0.056902
			-0.824768 -0.562815  0.054750
			-0.833223 -0.533229 -0.146310
			-0.978257 -0.157624 -0.134790
			-0.901591 -0.351801 -0.251733
			-0.991746 -0.110236 -0.065483
			-0.991328 -0.090091  0.095666
			-0.992054 -0.108056  0.064445
			-0.957227 -0.208595 -0.200512
			-0.986911 -0.138263 -0.083002
			-0.981443 -0.188726 -0.033952
			-0.964354 -0.200699 -0.172456
			-0.972406 -0.210037 -0.101541
			-0.977995 -0.202848 -0.048772
			-0.973463 -0.187288 -0.131503
			-0.925669 -0.226461 -0.303072
			-0.877287 -0.207031 -0.433019
			-0.814131 -0.184552 -0.550574
			-0.600143 -0.187791 -0.777537
			-0.521523 -0.200792 -0.829274
			-0.578399 -0.128688 -0.805539
			-0.592619 -0.184009 -0.784183
			-0.525505 -0.190881 -0.829101
			-0.503221 -0.171290 -0.847011
			-0.750680 -0.165934 -0.639489
			-0.684146 -0.170841 -0.709054
			-0.539420 -0.833864  0.117033
			-0.561905 -0.827168  0.007440
			-0.406019 -0.891703  0.200038
			-0.500045 -0.863136 -0.070368
			-0.506971 -0.827504 -0.241284
			-0.511092 -0.740789 -0.435908
			-0.430505 -0.584054 -0.688147
			-0.132544 -0.677893 -0.723114
			-0.187331 -0.441905 -0.877284
			-0.277617 -0.553469 -0.785239
			-0.304403 -0.656930 -0.689770
			-0.374307 -0.313542 -0.872689
			-0.185080 -0.488712 -0.852588
			-0.540045 -0.164947 -0.825314
			-0.475029 -0.123855 -0.871210
			-0.371616 -0.181478 -0.910476
			-0.415302 -0.341947 -0.842969
			-0.428472 -0.307868 -0.849487
			-0.374289 -0.249536 -0.893107
			-0.378538 -0.319911 -0.868543
			-0.335716 -0.205458 -0.919283
			-0.218458 -0.160056 -0.962631
			-0.414950 -0.080929 -0.906238
			-0.264014 -0.011760 -0.964447
			-0.202875 -0.083094 -0.975673
			-0.480090 -0.036368 -0.876465
			-0.297770 -0.012281 -0.954558
			-0.322454 -0.853854  0.408603
			-0.438423 -0.823867  0.359206
			-0.509285 -0.833116  0.215746
			-0.372142 -0.919807  0.124362
			-0.702061 -0.708091 -0.075614
			-0.754467 -0.609284 -0.244032
			-0.829900 -0.465396 -0.307688
			-0.992974 -0.109767 -0.044194
			-0.946823 -0.267556 -0.178721
			-0.994005 -0.109326 -0.001257
			-0.963974 -0.102201  0.245581
			-0.883148 -0.133806  0.449607
			-0.959934 -0.085025  0.267016
			-0.976253 -0.036787  0.213487
			-0.979694 -0.065548  0.189480
			-0.989481 -0.139919  0.036734
			-0.984844 -0.172395  0.019020
			-0.962855 -0.238883 -0.125879
			-0.945616 -0.222764 -0.237037
			-0.946528 -0.190241 -0.260565
			-0.889676 -0.194140 -0.413264
			-0.860229 -0.178926 -0.477486
			-0.359372 -0.148279 -0.921339
			-0.362947 -0.211662 -0.907452
			-0.667405 -0.159906 -0.727324
			-0.512750 -0.143529 -0.846456
			-0.532214 -0.182860 -0.826626
			-0.372336 -0.172823 -0.911865
			-0.536017 -0.150738 -0.830641
			-0.714173 -0.153276 -0.682982
			-0.762710 -0.148965 -0.629351
			-0.759818 -0.149505 -0.632712
			-0.284300 -0.936090  0.207143
			-0.392027 -0.918624 -0.049444
			-0.346878 -0.849410 -0.397716
			-0.353523 -0.922185 -0.156834
			-0.429511 -0.723053 -0.541031
			 0.003990 -0.666545 -0.745455
			 0.102831 -0.886275 -0.451601
			-0.045479 -0.914421 -0.402202
			-0.119823 -0.893620 -0.432534
			-0.229581 -0.711103 -0.664549
			 0.095411 -0.771386 -0.629175
			 0.035939 -0.689097 -0.723777
			-0.168705 -0.875152 -0.453485
			-0.230562 -0.528683 -0.816906
			 0.070349 -0.740341 -0.668540
			-0.344900 -0.398884 -0.849668
			-0.492612 -0.226310 -0.840308
			-0.327865 -0.280093 -0.902249
			-0.158258 -0.311680 -0.936915
			 0.049995 -0.350574 -0.935200
			-0.150639 -0.258868 -0.954094
			-0.138602 -0.617591 -0.774190
			-0.248781 -0.191944 -0.949350
			-0.130641 -0.200288 -0.970988
			 0.090783 -0.093377 -0.991483
			-0.048030 -0.222446 -0.973761
			-0.065937 -0.203589 -0.976834
			-0.029518  0.059498 -0.997792
			-0.070429  0.012183 -0.997442
			-0.062631  0.044904 -0.997026
			 0.017215  0.079599 -0.996678
			-0.178959 -0.045597 -0.982799
			 0.014267 -0.908390  0.417881
			-0.259364 -0.879999  0.397911
			-0.206781 -0.976266  0.064391
			 0.059478 -0.928851  0.365647
			-0.157022 -0.987479 -0.015166
			-0.311682 -0.948638 -0.054222
			-0.476382 -0.874979 -0.086446
			-0.653228 -0.736011 -0.177710
			-0.803657 -0.545539 -0.237746
			-0.596233 -0.759949 -0.258810
			-0.680527 -0.687889 -0.252370
			-0.889976 -0.383555 -0.246632
			-0.894576 -0.430302 -0.120726
			-0.984020 -0.146510  0.101194
			-0.956122 -0.292947  0.003480
			-0.946242 -0.274720  0.170746
			-0.915526 -0.200548  0.348702
			-0.858114 -0.134594  0.495505
			-0.790317 -0.196880  0.580205
			 0.973960 -0.061967  0.218085
			 0.771275 -0.177325  0.611302
			-0.855176 -0.077841  0.512459
			-0.904587 -0.026555  0.425460
			-0.904633  0.020572  0.425695
			-0.972899 -0.116661  0.199644
			-0.892812 -0.014896  0.450183
			-0.982302 -0.177313  0.060359
			-0.983911 -0.177135 -0.023271
			-0.978865 -0.185708 -0.085649
			-0.977725 -0.189507 -0.090222
			-0.903725 -0.192061 -0.382614
			-0.964465 -0.180860 -0.192605
			-0.899560 -0.169620 -0.402519
			-0.986257 -0.144097  0.080831
			-0.339478 -0.215498 -0.915596
			-0.093916 -0.099451 -0.990600
			 0.023186 -0.190587 -0.981397
			-0.034738 -0.115662 -0.992681
			-0.386224 -0.222150 -0.895255
			-0.129922 -0.248419 -0.959900
			-0.774825 -0.139373 -0.616622
			-0.678985 -0.139396 -0.720797
			-0.382891 -0.104644 -0.917848
			-0.428726 -0.171314 -0.887043
			-0.369306 -0.060386 -0.927344
			-0.461238 -0.160138 -0.872706
			-0.364898 -0.209097 -0.907264
			-0.200228 -0.144632 -0.969015
			-0.828389 -0.140158 -0.542335
			-0.928817 -0.149367 -0.339099
			-0.123780 -0.992308 -0.001762
			 0.091459 -0.957580  0.273270
			-0.155467 -0.970072 -0.186521
			 0.025761 -0.973210 -0.228471
			 0.228232 -0.957388 -0.176972
			 0.067941 -0.985148 -0.157694
			 0.256209 -0.864106 -0.433218
			 0.174127 -0.795226 -0.580771
			-0.039405 -0.981148 -0.189198
			-0.073434 -0.981032 -0.179398
			 0.172738 -0.754175 -0.633547
			 0.402524 -0.795358 -0.453189
			-0.006625 -0.641677 -0.766946
			-0.093036 -0.500528 -0.860707
			-0.258161 -0.339476 -0.904494
			 0.009691 -0.440689 -0.897608
			 0.170675 -0.439580 -0.881839
			 0.159330 -0.304447 -0.939109
			 0.393906 -0.394249 -0.830305
			-0.008954 -0.002945 -0.999956
			-0.113653 -0.070300 -0.991030
			 0.182199 -0.171258 -0.968232
			 0.412436  0.162281 -0.896416
			 0.425507 -0.020506 -0.904723
			 0.253665  0.144109 -0.956497
			 0.286004 -0.233603 -0.929318
			 0.054414  0.170619 -0.983833
			 0.174252  0.324695 -0.929629
			 0.181696  0.181026 -0.966549
			 0.332786  0.330892 -0.883043
			 0.368682  0.108718 -0.923176
			 0.264337  0.135996 -0.954794
			 0.357158  0.223553 -0.906897
			 0.202838  0.024453 -0.978907
			 0.243865 -0.847804  0.470912
			 0.378690 -0.800350  0.464795
			 0.225423 -0.911182  0.344865
			-0.040781 -0.979666  0.196449
			 0.244718 -0.939995  0.237745
			 0.415351 -0.812189  0.409673
			 0.087301 -0.995807  0.027350
			-0.137709 -0.967665 -0.211332
			 0.202396 -0.947910 -0.245973
			-0.474592 -0.863927 -0.168499
			-0.906160 -0.417927  0.064891
			-0.806483 -0.580171 -0.113960
			-0.620982 -0.782936 -0.037312
			-0.517235 -0.850918 -0.091692
			-0.732383 -0.680748  0.014056
			-0.912102 -0.365725  0.185245
			-0.850248 -0.216262  0.479906
			-0.716789 -0.159217  0.678870
			-0.794030 -0.113249  0.597236
			-0.814858 -0.215886  0.537959
			-0.166727 -0.248254  0.954239
			-0.807515  0.017925  0.589574
			-0.853086  0.031054  0.520846
			-0.689424 -0.034370  0.723542
			-0.794015  0.062269  0.604700
			-0.955454 -0.097453  0.278587
			-0.979133 -0.139907  0.147393
			-0.792498  0.052495  0.607612
			-0.822728  0.021704  0.568021
			-0.870869 -0.035880  0.490203
			-0.984127 -0.126710  0.124249
			-0.988289 -0.146624 -0.042265
			-0.981916 -0.142568 -0.124559
			-0.920389 -0.086430  0.381333
			-0.993590 -0.112033  0.015090
			-0.921061 -0.076041  0.381921
			-0.963759 -0.088115  0.251801
			-0.977295 -0.094068  0.189858
			-0.923804 -0.107420  0.367487
			 0.141553 -0.062446 -0.987959
			 0.328892  0.016624 -0.944221
			 0.347691 -0.081348 -0.934074
			 0.244981 -0.180826 -0.952516
			-0.172883 -0.190355 -0.966373
			 0.135444 -0.194923 -0.971422
			-0.787539 -0.122636 -0.603939
			-0.900981 -0.123833 -0.415810
			-0.872464 -0.120926 -0.473480
			-0.895272 -0.129069 -0.426415
			-0.798047 -0.128591 -0.588715
			-0.711610 -0.139249 -0.688637
			-0.592725 -0.145507 -0.792152
			-0.813769 -0.115222 -0.569653
			-0.246708 -0.100217 -0.963894
			-0.069816 -0.146056 -0.986810
			-0.152970 -0.181275 -0.971463
			-0.150550 -0.200857 -0.967983
			-0.369265 -0.135751 -0.919356
			-0.033063 -0.200977 -0.979038
			-0.979077 -0.144541 -0.143237
			-0.958122 -0.121421 -0.259342
			-0.883788 -0.130225 -0.449400
			 0.040189 -0.998628 -0.033560
			 0.363742 -0.869166  0.335025
			 0.209467 -0.928559  0.306434
			 0.112698 -0.993569 -0.010938
			 0.421589 -0.888148 -0.182912
			 0.504188 -0.862282  0.047574
			 0.280444 -0.958082 -0.058564
			 0.224106 -0.645057 -0.730533
			 0.607581 -0.768210 -0.201738
			 0.502026 -0.751906 -0.427326
			 0.445715 -0.635432 -0.630527
			 0.285535 -0.505555 -0.814177
			 0.609725 -0.422744 -0.670465
			 0.616306 -0.262748 -0.742382
			 0.177488  0.257309 -0.949890
			 0.424969 -0.192458 -0.884512
			 0.493468 -0.110634 -0.862699
			 0.639472  0.170566 -0.749655
			 0.431674  0.457475 -0.777416
			 0.560147  0.340116 -0.755352
			 0.642274 -0.019665 -0.766223
			 0.213596  0.398483 -0.891957
			 0.422740  0.511755 -0.747929
			 0.602648  0.334555 -0.724492
			 0.541602  0.194108 -0.817918
			 0.593934  0.138045 -0.792582
			 0.506392  0.082309 -0.858366
			 0.536445  0.097091 -0.838332
			 0.538119 -0.778140  0.323923
			 0.537288 -0.706651  0.460398
			 0.524109 -0.698912  0.486654
			 0.456945 -0.875263  0.158483
			 0.381785 -0.922624 -0.054826
			 0.259336 -0.907034  0.331714
			 0.588945 -0.738533  0.328197
			 0.365323 -0.894497 -0.257709
			 0.119558 -0.987121 -0.106294
			-0.093749 -0.993669 -0.061918
			-0.310401 -0.942721 -0.122184
			 0.277008 -0.949866 -0.144987
			 0.501152 -0.819103 -0.279135
			 0.394110 -0.898279 -0.194351
			-0.883836 -0.466761  0.031107
			-0.850786 -0.523312  0.048029
			-0.683994 -0.685064  0.250678
			-0.646902 -0.743443  0.169737
			-0.469591 -0.881818  0.043384
			-0.597104 -0.801213  0.039049
			-0.769719 -0.530318  0.355382
			-0.815562 -0.507008  0.278928
			-0.870978 -0.386328  0.303561
			-0.718608 -0.111470  0.686423
			-0.753843 -0.180307  0.631831
			-0.830239 -0.311677  0.462127
			-0.799013 -0.272313  0.536119
			-0.802585 -0.118205  0.584710
			-0.639583 -0.134668  0.756834
			-0.777906 -0.129872  0.614813
			-0.608645  0.060770  0.791112
			-0.633760  0.057541  0.771386
			-0.548943 -0.122116  0.826892
			-0.722800  0.031221  0.690352
			-0.926936 -0.068545  0.368906
			-0.872095 -0.061023  0.485516
			-0.665540  0.113523  0.737678
			-0.722644  0.043825  0.689829
			-0.989934 -0.141517 -0.001873
			-0.805777 -0.034752  0.591198
			-0.852034 -0.021218  0.523057
			-0.902060 -0.036302  0.430081
			-0.812619  0.005555  0.582769
			-0.991420 -0.120913  0.049665
			-0.973628 -0.072870  0.216192
			-0.912108 -0.019316  0.409496
			 0.535586  0.008372 -0.844439
			 0.708090  0.094264 -0.699802
			 0.679091 -0.005291 -0.734035
			 0.498323 -0.116337 -0.859150
			 0.498598 -0.155057 -0.852853
			 0.107888 -0.136187 -0.984791
			 0.397246 -0.116827 -0.910246
			-0.863294 -0.122464 -0.489618
			-0.883052 -0.115065 -0.454951
			-0.935708 -0.112964 -0.334200
			-0.777018 -0.113867 -0.619095
			-0.897568 -0.104407 -0.428334
			-0.846344 -0.092614 -0.524524
			-0.657487 -0.137599 -0.740795
			-0.530798 -0.139230 -0.835983
			-0.916436 -0.100606 -0.387328
			 0.390416 -0.098387 -0.915366
			 0.274505 -0.188839 -0.942861
			 0.216373 -0.212107 -0.952992
			-0.072205 -0.162505 -0.984062
			-0.374863 -0.141648 -0.916195
			-0.987475 -0.146204 -0.059310
			-0.986021 -0.115756 -0.119850
			-0.852211 -0.130171 -0.506746
			-0.962429 -0.107837 -0.249201
			 0.226672 -0.968613  0.102021
			 0.265802 -0.954590  0.134565
			 0.200913 -0.977891  0.057992
			 0.746958 -0.664870 -0.001589
			 0.650824 -0.751091  0.110860
			 0.597844 -0.704338 -0.382740
			 0.804577 -0.579982 -0.127581
			 0.677211 -0.558892 -0.478565
			 0.814726 -0.372952 -0.443991
			 0.722771 -0.179661 -0.667326
			 0.817106 -0.244210 -0.522206
			 0.611927 -0.123348 -0.781236
			 0.756601  0.064433 -0.650694
			 0.783785  0.020890 -0.620682
			 0.782292  0.278003 -0.557434
			 0.727786  0.376109 -0.573472
			 0.657500  0.556392 -0.508057
			 0.579032  0.719215 -0.383993
			 0.583622  0.684424 -0.436978
			 0.396526  0.598111 -0.696441
			 0.552964  0.682141 -0.478450
			 0.733693  0.470333 -0.490388
			 0.758451  0.246129 -0.603467
			 0.734957  0.115354 -0.668230
			 0.771336  0.156190 -0.616964
			 0.747709  0.131540 -0.650868
			 0.847564  0.156845 -0.506986
			 0.723340 -0.656593  0.213694
			 0.737236 -0.564816  0.370764
			 0.643495 -0.613425  0.457847
			 0.626824 -0.701425  0.339257
			 0.493561 -0.834464  0.245086
			 0.583268 -0.812154  0.014288
			 0.636594 -0.722326 -0.270173
			-0.027153 -0.966455  0.255397
			 0.274284 -0.950520  0.145878
			-0.296193 -0.949566  0.102923
			 0.526100 -0.846806 -0.078348
			 0.631187 -0.728824 -0.265364
			-0.728112 -0.528715  0.436250
			-0.602361 -0.761825  0.238293
			-0.684857 -0.614447  0.391695
			-0.385566 -0.848679  0.362053
			-0.755104 -0.407376  0.513675
			-0.791439 -0.400998  0.461330
			-0.611505 -0.003116  0.791235
			-0.694364 -0.203282  0.690315
			-0.540716  0.030273  0.840661
			-0.762556 -0.281427  0.582501
			-0.683953 -0.082119  0.724889
			-0.497186 -0.074343  0.864453
			-0.348939 -0.172695  0.921096
			-0.440393 -0.076525  0.894538
			-0.572185 -0.037959  0.819245
			-0.565959  0.040251  0.823450
			-0.622816  0.114430  0.773955
			-0.514946  0.154492  0.843186
			-0.487037  0.108595  0.866604
			-0.608732  0.043491  0.792183
			-0.792577 -0.006129  0.609742
			-0.704268 -0.017633  0.709715
			-0.775612  0.009620  0.631137
			-0.778809  0.015062  0.627081
			-0.654334  0.035388  0.755377
			-0.708039  0.038026  0.705149
			-0.828828  0.014953  0.559304
			-0.988326 -0.059625  0.140201
			-0.995940 -0.088898 -0.014156
			-0.932895 -0.019514  0.359620
			 0.806230  0.062975 -0.588241
			 0.926119  0.127519 -0.355023
			 0.714777 -0.085809 -0.694068
			 0.870181  0.054067 -0.489758
			 0.863512  0.107939 -0.492641
			 0.764396 -0.072758 -0.640628
			 0.659741 -0.084848 -0.746687
			 0.623616 -0.016518 -0.781556
			-0.981268 -0.100033 -0.164640
			-0.977211 -0.111877 -0.180394
			-0.751774 -0.118000 -0.648777
			-0.981880 -0.080904 -0.171366
			-0.958551 -0.086668 -0.271420
			-0.929609 -0.064169 -0.362917
			-0.803072 -0.100885 -0.587280
			-0.847816 -0.096752 -0.521390
			-0.637043 -0.153286 -0.755433
			-0.782350 -0.130214 -0.609076
			 0.688479 -0.046296 -0.723777
			 0.523903 -0.183081 -0.831869
			 0.556807 -0.223052 -0.800133
			 0.507912 -0.176599 -0.843112
			 0.267346 -0.146438 -0.952409
			 0.129392 -0.145615 -0.980843
			-0.311164 -0.135027 -0.940715
			-0.501232 -0.138738 -0.854118
			-0.148798 -0.138532 -0.979116
			 0.796947 -0.592310  0.118511
			 0.903268 -0.422331  0.075792
			 0.825093 -0.514066 -0.234429
			 0.933222 -0.356455 -0.045124
			 0.920023 -0.336624 -0.200602
			 0.935840 -0.195148 -0.293463
			 0.862720 -0.125353 -0.489899
			 0.734336 -0.085565 -0.673371
			 0.844194  0.004774 -0.536016
			 0.872817  0.102254 -0.477216
			 0.862528  0.265922 -0.430502
			 0.864236  0.142168 -0.482581
			 0.879396  0.117245 -0.461429
			 0.790746  0.491567 -0.364804
			 0.829243  0.430126 -0.356857
			 0.682786  0.703004 -0.198967
			 0.646062  0.742610 -0.176450
			 0.575385  0.733266 -0.362288
			 0.632710  0.728802 -0.261775
			 0.701529  0.610773 -0.367170
			 0.800401  0.494140 -0.339386
			 0.729759  0.620544 -0.287013
			 0.853275  0.365897 -0.371540
			 0.881901  0.263989 -0.390591
			 0.886240  0.168503 -0.431491
			 0.919420  0.125368 -0.372759
			 0.959793  0.216188 -0.179056
			 0.846789 -0.450079  0.283508
			 0.771445 -0.503158  0.389494
			 0.830039 -0.396909  0.391789
			 0.692001 -0.563565  0.451143
			 0.811298 -0.584527 -0.011133
			 0.739244 -0.637751  0.216314
			 0.684616 -0.613503  0.393591
			 0.666174 -0.674315 -0.318609
			 0.807395 -0.535705 -0.247251
			 0.175332 -0.873868  0.453447
			-0.033362 -0.837160  0.545940
			-0.189018 -0.831960  0.521646
			 0.361880 -0.830255  0.423933
			 0.409630 -0.900462  0.146193
			 0.666219 -0.745735 -0.005697
			 0.533617 -0.797279  0.282133
			 0.631479 -0.743085 -0.221493
			-0.705668 -0.264865  0.657175
			-0.641704 -0.411315  0.647330
			-0.507084 -0.609343  0.609564
			-0.329883 -0.686758  0.647720
			-0.389912  0.044075  0.919797
			-0.514211  0.003134  0.857658
			-0.308337 -0.091844  0.946833
			-0.293676 -0.146319  0.944640
			-0.260604 -0.168442  0.950638
			-0.285859 -0.071924  0.955569
			-0.331940  0.048626  0.942046
			-0.415820  0.117531  0.901821
			-0.444230  0.171039  0.879434
			-0.305819  0.218137  0.926764
			-0.425202  0.096437  0.899946
			-0.217438  0.123100  0.968280
			-0.455252  0.082433  0.886539
			-0.410880  0.072640  0.908791
			-0.425656  0.040595  0.903974
			-0.533195  0.031899  0.845391
			-0.538354  0.063147  0.840349
			-0.677434  0.030206  0.734963
			-0.905702  0.018712  0.423503
			-0.829190  0.030367  0.558141
			-0.760776  0.025259  0.648523
			-0.970273 -0.022708  0.240946
			-0.997854 -0.064539  0.011081
			 0.924715  0.080347 -0.372084
			 0.979750  0.153862 -0.128123
			 0.968553  0.080815 -0.235317
			 0.874923 -0.003926 -0.484247
			 0.891555  0.135826 -0.432065
			 0.949179  0.066161 -0.307704
			 0.790615  0.105456 -0.603164
			 0.818619 -0.039925 -0.572947
			 0.920855  0.006341 -0.389853
			-0.996863 -0.079115  0.002063
			-0.995218 -0.083780  0.050221
			-0.846841 -0.099978 -0.522364
			-0.998298 -0.033872 -0.047464
			-0.997616 -0.034913  0.059527
			-0.966930 -0.062069 -0.247373
			-0.991379 -0.070572 -0.110401
			-0.959338 -0.089605 -0.267659
			-0.778126 -0.104833 -0.619298
			-0.893914 -0.128850 -0.429320
			-0.872887 -0.093949 -0.478793
			-0.836035 -0.111751 -0.537175
			-0.674640 -0.113910 -0.729305
			-0.711867 -0.117575 -0.692403
			-0.882731 -0.113632 -0.455932
			 0.784016 -0.115937 -0.609818
			 0.663330 -0.213458 -0.717237
			 0.795392 -0.205444 -0.570214
			 0.776335 -0.204510 -0.596221
			 0.530077 -0.143540 -0.835712
			 0.484074 -0.096639 -0.869674
			 0.513025 -0.134784 -0.847726
			 0.179342 -0.138964 -0.973923
			-0.269184 -0.137731 -0.953190
			-0.485369 -0.135032 -0.863819
			-0.387228 -0.133372 -0.912286
			-0.656608 -0.130834 -0.742797
			 0.083816 -0.142252 -0.986275
			 0.892205 -0.347840  0.288058
			 0.927865 -0.344239  0.143407
			 0.930245 -0.288842  0.226307
			 0.986109 -0.143491 -0.083662
			 0.979384 -0.201229  0.017697
			 0.985886 -0.035057 -0.163705
			 0.955816 -0.020528 -0.293247
			 0.964722  0.118379 -0.235154
			 0.910845  0.194509 -0.364044
			 0.882260  0.358188 -0.305483
			 0.825691  0.535400 -0.177709
			 0.756374  0.633427 -0.163304
			 0.811944  0.526357 -0.252381
			 0.820974  0.464814 -0.331585
			 0.821013  0.563816 -0.089715
			 0.904109  0.366721 -0.219321
			 0.927271  0.326374  0.183438
			 0.953252  0.300746 -0.029350
			 0.952585  0.289065 -0.094988
			 0.949050  0.280776 -0.143070
			 0.873828 -0.303005  0.380281
			 0.876414 -0.377840  0.298555
			 0.797584 -0.571141  0.194056
			 0.851457 -0.315868  0.418626
			 0.856223 -0.511605  0.071717
			 0.756710 -0.613443 -0.226006
			 0.789625 -0.538424 -0.294266
			 0.863580 -0.403938 -0.301767
			 0.921439 -0.367691 -0.125510
			 0.893597 -0.319879 -0.314899
			-0.035193 -0.708896  0.704435
			 0.172182 -0.776892  0.605633
			-0.269491 -0.550943  0.789833
			 0.245626 -0.696344  0.674368
			 0.415446 -0.677972  0.606432
			 0.382551 -0.622253  0.682976
			 0.582460 -0.780346  0.227599
			 0.782471 -0.622561 -0.012542
			 0.721525 -0.663807  0.196880
			 0.449403 -0.753442  0.479961
			-0.562648 -0.204511  0.801001
			-0.402923 -0.298611  0.865150
			-0.356472 -0.459312  0.813610
			-0.307483  0.121713  0.943737
			-0.354114  0.104901  0.929300
			-0.297142 -0.015936  0.954700
			-0.391741 -0.025869  0.919712
			-0.041973 -0.043476  0.998172
			-0.352194 -0.101504  0.930407
			-0.301813 -0.173534  0.937441
			-0.322951 -0.066456  0.944080
			-0.287281 -0.098716  0.952746
			-0.319337 -0.055307  0.946026
			-0.147213  0.209998  0.966555
			-0.215070  0.198445  0.956224
			-0.268048  0.245436  0.931617
			-0.042258  0.275618  0.960338
			-0.322300  0.101543  0.941176
			 0.172687  0.142758  0.974576
			-0.132045  0.084046  0.987674
			-0.150509  0.077609  0.985558
			-0.322467  0.063234  0.944466
			-0.193335  0.067313  0.978821
			-0.404941  0.052069  0.912859
			-0.536040  0.079214  0.840468
			-0.370171  0.097467  0.923836
			-0.395036  0.093609  0.913884
			-0.567425  0.080686  0.819462
			-0.677296  0.055343  0.733626
			-0.940540  0.013921  0.339398
			-0.872178  0.037546  0.487746
			-0.719505  0.058526  0.692017
			-0.721328  0.049709  0.690807
			-0.770285  0.041275  0.636363
			-0.984720 -0.042497  0.168880
			 0.963496  0.055795 -0.261845
			 0.930309  0.053132 -0.362908
			 0.819654  0.016094 -0.572632
			 0.974280  0.086509 -0.208075
			 0.976219  0.214319  0.032628
			 0.991754  0.099661 -0.080567
			 0.985320  0.073424 -0.154123
			 0.991253  0.042996 -0.124775
			 0.845275  0.089213 -0.526832
			 0.903217  0.045520 -0.426762
			 0.897601 -0.014049 -0.440584
			 0.947334 -0.073731 -0.311644
			 0.742104  0.028606 -0.669674
			 0.922978 -0.103718 -0.370614
			-0.992236 -0.009853  0.123981
			-0.997150 -0.052683  0.054005
			-0.974131 -0.024311  0.224673
			-0.990356 -0.053506  0.127794
			-0.999011 -0.043648 -0.008539
			-0.921682 -0.092028 -0.376873
			-0.993692 -0.048090 -0.101314
			-0.998377 -0.056930  0.001332
			-0.754228 -0.134089 -0.642775
			-0.885696 -0.102330 -0.452848
			-0.809814 -0.120942 -0.574085
			 0.914782 -0.211683 -0.344040
			 0.937722 -0.139915 -0.317963
			 0.860388 -0.158358 -0.484411
			 0.798816 -0.133755 -0.586518
			 0.503909 -0.103797 -0.857498
			 0.659556 -0.058653 -0.749364
			 0.479739 -0.134402 -0.867056
			 0.622192 -0.120832 -0.773484
			-0.240657 -0.150943 -0.958801
			-0.254939 -0.142779 -0.956358
			-0.457784 -0.135539 -0.878671
			-0.750985 -0.127847 -0.647824
			-0.648495 -0.132405 -0.749615
			 0.513158 -0.116579 -0.850340
			 0.457236 -0.085630 -0.885214
			 0.020997 -0.141010 -0.989785
			 0.945351 -0.207135  0.251808
			 0.944409 -0.274606  0.180786
			 0.932942 -0.198893  0.300102
			 0.988671 -0.149294  0.015503
			 0.997543  0.069361 -0.009868
			 0.987210 -0.139371  0.077404
			 0.974348 -0.222577  0.033252
			 0.986207  0.048774 -0.158165
			 0.945065  0.300302 -0.129118
			 0.922490  0.292471 -0.251939
			 0.826850  0.546971 -0.130928
			 0.753012  0.656506  0.044424
			 0.830577  0.553550  0.061025
			 0.916209  0.400686  0.003380
			 0.892299  0.433025  0.127637
			 0.886064  0.353948  0.299351
			 0.840686  0.444883  0.308750
			 0.955444  0.244537  0.165315
			 0.952550 -0.180112  0.245372
			 0.852925 -0.236729  0.465273
			 0.927523 -0.355325  0.115956
			 0.850498 -0.253669  0.460766
			 0.895961 -0.424951 -0.129116
			 0.883605 -0.403272 -0.237939
			 0.871407 -0.416637 -0.258966
			 0.950483 -0.244740 -0.191532
			 0.921634 -0.245485 -0.300545
			 0.974201 -0.225533 -0.008172
			 0.936509 -0.296382 -0.187370
			 0.912115 -0.226746 -0.341515
			 0.932447 -0.184018 -0.310934
			-0.196468 -0.472308  0.859259
			-0.002786 -0.550678  0.834713
			-0.325866 -0.319509  0.889790
			-0.320833 -0.206148  0.924429
			 0.098143 -0.494605  0.863559
			 0.276748 -0.479838  0.832566
			 0.363358 -0.601827  0.711179
			 0.183821 -0.376835  0.907857
			 0.501102 -0.814878  0.291326
			 0.872987 -0.476447  0.104364
			 0.728252 -0.549410  0.409632
			 0.568138 -0.675433  0.470116
			-0.306765  0.010376  0.951729
			-0.351697  0.113735  0.929179
			 0.727234  0.026830  0.685865
			-0.223228  0.120021  0.967349
			-0.452963  0.034242  0.890872
			 0.780209 -0.002666  0.625513
			-0.214212 -0.120627  0.969310
			 0.065909  0.128088  0.989570
			-0.273655  0.161423  0.948185
			-0.547624  0.047809  0.835358
			 0.685718  0.024156  0.727466
			-0.259452  0.061124  0.963820
			-0.095112  0.192192  0.976737
			 0.148041  0.342579  0.927752
			 0.122431  0.352856  0.927633
			 0.280055  0.442912  0.851703
			-0.133187  0.265025  0.954999
			 0.304363  0.403486  0.862880
			 0.319083  0.283981  0.904180
			 0.012914  0.347579  0.937562
			 0.191076  0.110177  0.975372
			 0.495635  0.256057  0.829928
			 0.471775  0.201728  0.858332
			 0.173847  0.102600  0.979413
			-0.132131  0.086821  0.987423
			 0.143273  0.101543  0.984460
			-0.189045  0.048141  0.980788
			 0.093584  0.066434  0.993393
			-0.269086  0.071840  0.960433
			-0.351102  0.110583  0.929784
			-0.163753  0.109722  0.980381
			-0.133755  0.103971  0.985545
			-0.547247  0.083055  0.832840