<?xml version="1.0"?>
<VTKFile type="PolyData" version="0.1" byte_order="LittleEndian" compressor="vtkZLibDataCompressor">
	<PolyData>
		<Piece NumberOfPoints="4230" NumberOfVerts="0" NumberOfLines="0" NumberOfStrips="0" NumberOfPolys="8456">
		<PointData Normals="Normals">
		<DataArray type="Float32" Name="Normals" NumberOfComponents="3" format="ascii">
			-0.177741 -0.968729  0.173126
			-0.306502 -0.874730  0.375373
			-0.355116 -0.906873  0.226881
			-0.375617 -0.920813  0.104948
			-0.151271 -0.882484  0.445353
			 0.032396 -0.994220  0.102355
			-0.035815 -0.964646  0.261105
			-0.210128 -0.975267  0.068560
			-0.049248 -0.996679 -0.064849
			 0.037489 -0.999290 -0.003748
			-0.420750 -0.846685  0.325721
			-0.267291 -0.716428  0.644427
			-0.331315 -0.784204  0.524647
			-0.404548 -0.810791  0.423035
			-0.540233 -0.810094  0.227809
			-0.502517 -0.860749 -0.081160
			-0.222683 -0.964727 -0.140407
			 0.024109 -0.908905  0.416306
			-0.011947 -0.813216  0.581840
			 0.129020 -0.957477  0.258054
			 0.168122 -0.976393  0.135619
			 0.230778 -0.971952 -0.045276
			-0.012334 -0.977886 -0.208776
			 0.196242 -0.956359 -0.216486
			-0.512800 -0.754319  0.409927
			-0.301583 -0.500328  0.811616
			-0.335131 -0.614920  0.713835
			-0.335629 -0.617014  0.711791
			-0.096929 -0.648354  0.755144
			-0.458799 -0.668827  0.584957
			-0.566485 -0.823817 -0.020515
			-0.548724 -0.709113  0.442787
			-0.560199 -0.790792  0.246627
			-0.642952 -0.764721  0.042598
			-0.668094 -0.719419  0.189962
			-0.597890 -0.785770  0.158407
			-0.508226 -0.842147 -0.180263
			-0.366661 -0.891586 -0.265771
			-0.447788 -0.845891 -0.289747
			-0.121553 -0.932466 -0.340194
			-0.048728 -0.983690 -0.173147
			 0.140729 -0.891757  0.430075
			 0.094251 -0.720499  0.687021
			 0.175742 -0.826030  0.535527
			 0.294813 -0.909464  0.293191
			 0.319418 -0.940286  0.117620
			 0.391270 -0.915498 -0.093649
			 0.063376 -0.946622 -0.316054
			 0.333063 -0.901762 -0.275490
			 0.216990 -0.888653 -0.403994
			-0.603662 -0.628270  0.490784
			-0.390132 -0.569664  0.723381
			-0.281568 -0.348688  0.893944
			-0.246226 -0.225933  0.942511
			-0.232289 -0.334146  0.913449
			-0.375393 -0.555044  0.742298
			 0.002911 -0.551773  0.833990
			-0.493413 -0.516843  0.699583
			-0.599523 -0.552586  0.578982
			-0.538709 -0.832705 -0.128041
			-0.623485 -0.701321  0.345565
			-0.675511 -0.567585  0.470672
			-0.708109 -0.695851  0.119889
			-0.644714 -0.759850 -0.083504
			-0.759033 -0.650850 -0.016201
			-0.786350 -0.615975  0.047212
			-0.739070 -0.559781  0.374729
			-0.789681 -0.571650  0.222755
			-0.239935 -0.871830 -0.427018
			-0.233063 -0.810365 -0.537578
			-0.546069 -0.803565 -0.236838
			-0.415312 -0.777471 -0.472286
			 0.002655 -0.837829 -0.545927
			 0.365252 -0.828018  0.425413
			 0.255395 -0.774416  0.578838
			 0.270149 -0.727114  0.631129
			 0.050930 -0.586708  0.808195
			 0.105232 -0.577918  0.809282
			 0.501440 -0.847226  0.175400
			 0.475302 -0.873206 -0.107702
			 0.322891 -0.858040 -0.399385
			 0.409304 -0.845140 -0.343814
			 0.252181 -0.816188 -0.519848
			-0.680728 -0.490919  0.543698
			-0.464870 -0.409371  0.785055
			-0.387180 -0.406199  0.827704
			-0.158797 -0.385290  0.909030
			-0.106715 -0.280333  0.953953
			-0.170045 -0.125577  0.977402
			-0.154607 -0.392684  0.906585
			-0.376004 -0.162126  0.912325
			-0.266131 -0.350504  0.897954
			-0.008341 -0.331346  0.943472
			 0.166400 -0.329476  0.929385
			-0.571711 -0.440714  0.692039
			-0.779277 -0.414065  0.470402
			-0.813810 -0.476270  0.332986
			-0.758216 -0.649216 -0.060219
			-0.649195 -0.726657 -0.224755
			-0.848223 -0.526843  0.054354
			-0.842593 -0.513173  0.163375
			-0.171504 -0.688743 -0.704429
			-0.063808 -0.753987 -0.653783
			-0.274327 -0.710438 -0.648092
			-0.289476 -0.702839 -0.649786
			-0.237241 -0.717193 -0.655249
			-0.441546 -0.662754 -0.604809
			-0.482142 -0.616046 -0.622918
			-0.571689 -0.665257 -0.480212
			 0.041953 -0.783612 -0.619833
			 0.428452 -0.751081  0.502301
			 0.540056 -0.757294  0.367212
			 0.251639 -0.574085  0.779169
			 0.469247 -0.673720  0.570884
			 0.011760 -0.443819  0.896039
			 0.110352 -0.369049  0.922835
			 0.582705 -0.798079  0.153376
			 0.530284 -0.835650 -0.143134
			 0.568472 -0.734028 -0.371540
			 0.473565 -0.759369 -0.446201
			 0.499720 -0.745721 -0.440659
			 0.459820 -0.706644 -0.537791
			 0.102434 -0.759288 -0.642642
			 0.220535 -0.711471 -0.667213
			-0.584224 -0.339719  0.737071
			-0.529916 -0.363139  0.766367
			-0.524907 -0.384318  0.759455
			-0.335070 -0.444989  0.830490
			-0.005477 -0.557199  0.830361
			 0.176185 -0.429025  0.885943
			-0.078330 -0.530887  0.843815
			-0.428933 -0.420719  0.799383
			-0.522115 -0.484751  0.701721
			-0.443266 -0.531994  0.721455
			-0.161258 -0.487399  0.858159
			 0.018676 -0.440266  0.897673
			-0.842648 -0.412197  0.346466
			-0.848187 -0.329155  0.415012
			-0.683942 -0.256460  0.682973
			-0.826932 -0.249268  0.504032
			-0.861280 -0.482816  0.158386
			-0.869423 -0.447853  0.208644
			-0.779954 -0.623553 -0.053417
			-0.772709 -0.621036 -0.131282
			-0.697336 -0.655292 -0.290371
			-0.874788 -0.466326  0.131472
			-0.863248 -0.492263  0.111711
			-0.869294 -0.494193 -0.010071
			-0.104788 -0.592419 -0.798786
			-0.196256 -0.541468 -0.817494
			-0.306261 -0.490796 -0.815674
			-0.242387 -0.568775 -0.785967
			-0.032239 -0.711759 -0.701684
			-0.267835 -0.550927 -0.790407
			-0.372255 -0.536045 -0.757682
			-0.444066 -0.542373 -0.713187
			-0.331733 -0.404334 -0.852331
			-0.436329 -0.494458 -0.751750
			-0.592431 -0.644637 -0.483186
			 0.527627 -0.683492  0.504429
			 0.666967 -0.695607  0.266996
			 0.612980 -0.735697  0.288107
			 0.656179 -0.655592  0.373670
			 0.226736 -0.534494  0.814191
			-0.050711 -0.479819  0.875901
			 0.522115 -0.636257  0.567955
			 0.405199 -0.570131  0.714678
			-0.060794 -0.492754  0.868042
			 0.646589 -0.755865 -0.102905
			 0.685787 -0.700067  0.199006
			 0.546939 -0.721948 -0.423850
			 0.542271 -0.762660 -0.352551
			 0.472126 -0.811474 -0.344394
			 0.665198 -0.622211 -0.412753
			 0.663022 -0.566088 -0.489843
			 0.362509 -0.653405 -0.664567
			 0.535614 -0.606285 -0.587823
			 0.013556 -0.673536 -0.739030
			 0.166286 -0.559930 -0.811682
			 0.067647 -0.619039 -0.782441
			-0.580542 -0.176143  0.794949
			-0.523702 -0.336027  0.782830
			-0.497663 -0.375555  0.781850
			-0.115410 -0.579903  0.806470
			-0.418576 -0.376916  0.826274
			 0.200152 -0.718020  0.666623
			-0.083447 -0.741237  0.666036
			 0.325473 -0.675549  0.661590
			-0.510733 -0.615391  0.600371
			-0.471712 -0.631282  0.615607
			-0.274886 -0.512833  0.813290
			-0.087768 -0.527820  0.844809
			 0.124381 -0.507151  0.852835
			-0.886879 -0.314280  0.338636
			-0.859874 -0.210591  0.465046
			-0.750311 -0.203317  0.629043
			-0.612099 -0.174766  0.771227
			-0.733398 -0.133756  0.666510
			-0.829153 -0.117720  0.546486
			-0.843320 -0.122383  0.523291
			-0.902469 -0.378903  0.204896
			-0.834968 -0.507869 -0.211891
			-0.766761 -0.583812 -0.266910
			-0.659310 -0.616915 -0.429798
			-0.881182 -0.459444  0.111486
			-0.913213 -0.397117 -0.091328
			-0.927555 -0.361948  0.092924
			-0.125582 -0.538630 -0.833131
			-0.190702 -0.387697 -0.901845
			-0.359779 -0.325282 -0.874500
			-0.251009 -0.345731 -0.904137
			-0.388650 -0.290604 -0.874357
			-0.487977 -0.267842 -0.830746
			-0.228786 -0.310844 -0.922515
			-0.309060 -0.361103 -0.879822
			-0.338181 -0.361066 -0.869060
			-0.188491 -0.221949 -0.956666
			-0.230096 -0.140446 -0.962980
			-0.316551 -0.370223 -0.873344
			-0.532875 -0.538775 -0.652507
			 0.786748 -0.559599  0.260532
			 0.692499 -0.553155  0.463102
			 0.751839 -0.541152  0.376686
			 0.023300 -0.509486  0.860163
			 0.241223 -0.489789  0.837806
			 0.413551 -0.523478  0.744947
			-0.189537 -0.528276  0.827647
			 0.557274 -0.564287  0.609119
			 0.014912 -0.578697  0.815406
			 0.788662 -0.605983  0.103909
			 0.737624 -0.664722 -0.118559
			 0.614803 -0.724463 -0.311723
			 0.799654 -0.477571 -0.363978
			 0.736799 -0.625958 -0.255546
			 0.758867 -0.449453 -0.471289
			 0.605311 -0.496483 -0.622176
			 0.710980 -0.404969 -0.574898
			 0.309704 -0.582776 -0.751302
			 0.429081 -0.468758 -0.772111
			-0.060188 -0.504934 -0.861057
			 0.032282 -0.410005 -0.911512
			 0.235938 -0.453305 -0.859563
			-0.502172 -0.259913  0.824784
			-0.562802 -0.135687  0.815379
			-0.561821 -0.008827  0.827212
			-0.714247 -0.049544  0.698138
			-0.448091 -0.303105  0.841036
			-0.313340 -0.455987  0.833003
			 0.154370 -0.631696  0.759690
			-0.226717 -0.754168  0.616303
			-0.044781 -0.729615  0.682390
			-0.132088 -0.598890  0.789863
			-0.181658 -0.370211  0.911013
			-0.162823 -0.303477  0.938824
			-0.078339 -0.445891  0.891653
			-0.915660 -0.281927  0.286502
			-0.914969 -0.310552  0.257661
			-0.903927 -0.081348  0.419880
			-0.900851 -0.182458  0.393925
			-0.941578 -0.200748  0.270426
			-0.793080 -0.114034  0.598348
			-0.719218 -0.129453  0.682618
			-0.793084 -0.088988  0.602577
			-0.730325 -0.083600  0.677965
			-0.710654  0.019140  0.703281
			-0.836763 -0.082059  0.541382
			-0.915331 -0.117980  0.385033
			-0.929584 -0.307636  0.203063
			-0.763200 -0.539427 -0.355730
			-0.830906 -0.436552 -0.344989
			-0.462415 -0.559074 -0.688192
			-0.615929 -0.585165 -0.527459
			-0.956622 -0.266135  0.118522
			-0.959336 -0.280417  0.032274
			-0.946739 -0.319432 -0.040592
			-0.893290 -0.374128 -0.249122
			-0.248739 -0.333180 -0.909461
			-0.315614 -0.354003 -0.880380
			-0.330725 -0.160214 -0.930028
			-0.479736 -0.095968 -0.872149
			-0.417493 -0.149767 -0.896253
			-0.240498 -0.145525 -0.959679
			-0.128578 -0.041279 -0.990840
			-0.070413 -0.256777 -0.963902
			-0.113767 -0.084992 -0.989865
			-0.076136 -0.001120 -0.997097
			-0.275959 -0.420025 -0.864538
			 0.894310 -0.403553  0.193273
			 0.834800 -0.429264  0.344733
			 0.840350 -0.436562  0.321288
			 0.702673 -0.503269  0.502962
			 0.116782 -0.437964  0.891375
			-0.042240 -0.452851  0.890585
			 0.272407 -0.446144  0.852496
			 0.537027 -0.504203  0.676300
			 0.416158 -0.423619  0.804586
			 0.568596 -0.509935  0.645496
			 0.847880 -0.530162  0.005208
			 0.841078 -0.512230 -0.173804
			 0.878914 -0.327653 -0.346631
			 0.887746 -0.372293 -0.270749
			 0.826421 -0.342357 -0.447013
			 0.491687 -0.358979 -0.793333
			 0.813491 -0.302252 -0.496866
			 0.716405 -0.286749 -0.636034
			 0.103073 -0.327078 -0.939360
			 0.240190 -0.331402 -0.912404
			-0.149384 -0.333084 -0.930988
			-0.501265 -0.116682  0.857391
			-0.411093 -0.296288  0.862100
			-0.442366 -0.244194  0.862949
			-0.479193  0.027636  0.877274
			-0.471064  0.022424  0.881814
			-0.589824  0.063603  0.805023
			-0.498947  0.045484  0.865438
			-0.473592 -0.315753  0.822199
			-0.346966 -0.298886  0.888978
			-0.193848 -0.488760  0.850609
			-0.463663 -0.295709  0.835208
			-0.321025 -0.220415  0.921065
			-0.125587 -0.328360  0.936167
			-0.170844 -0.186542  0.967478
			-0.091789 -0.104835  0.990245
			-0.142846 -0.176837  0.973819
			-0.936451 -0.263098  0.232033
			-0.925789  0.151744  0.346248
			-0.941308 -0.022384  0.336804
			-0.962497 -0.023030  0.270314
			-0.959894 -0.050370  0.275801
			-0.951250 -0.185444  0.246442
			-0.635071  0.001630  0.772452
			-0.710747 -0.071068  0.699848
			-0.828210 -0.155780  0.538331
			-0.946040 -0.162087  0.280598
			-0.928342 -0.136217  0.345869
			-0.958675 -0.139491  0.247962
			-0.711116 -0.441966 -0.546791
			-0.656330 -0.520070 -0.546588
			-0.672233 -0.422287 -0.608092
			-0.726069 -0.408620 -0.553041
			-0.467506 -0.494388 -0.732816
			-0.966111 -0.075024  0.246983
			-0.974078 -0.201693  0.102434
			-0.903233 -0.383364 -0.192879
			-0.897686 -0.389117 -0.206757
			-0.971424 -0.226713  0.070269
			-0.782798 -0.417686 -0.461264
			-0.424107 -0.079551 -0.902111
			-0.516062 -0.080768 -0.852735
			-0.406925 -0.199522 -0.891405
			-0.429514  0.005712 -0.903042
			 0.942976  0.007293 -0.332781
			 0.767437  0.034012 -0.640222
			-0.247220 -0.365201 -0.897502
			-0.199506 -0.310110 -0.929532
			-0.042093 -0.288046 -0.956691
			-0.006450 -0.208980 -0.977899
			-0.208441 -0.054547 -0.976513
			 0.591259 -0.016479 -0.806314
			 0.909451 -0.343433  0.234419
			 0.898674 -0.436399  0.044068
			 0.921075 -0.388216  0.030166
			 0.956537 -0.281363  0.076624
			 0.911106 -0.353448  0.212038
			 0.799239 -0.463623  0.382454
			 0.911644 -0.368135  0.182707
			 0.653024 -0.448392  0.610331
			 0.217791 -0.379025  0.899393
			 0.035698 -0.303694  0.952101
			-0.066621 -0.326344  0.942901
			 0.245919 -0.299573  0.921835
			 0.185174 -0.297192  0.936690
			 0.626069 -0.463613  0.626978
			 0.475996 -0.521319  0.708276
			 0.480392 -0.345984  0.805927
			 0.872746 -0.484443 -0.060249
			 0.914305 -0.377335 -0.147192
			 0.932872 -0.275047 -0.232591
			 0.872260 -0.229530 -0.431831
			 0.915076 -0.239862 -0.324195
			 0.252379 -0.269701 -0.929282
			 0.493980 -0.267957 -0.827154
			 0.849087 -0.225700 -0.477609
			 0.759353 -0.234253 -0.607049
			 0.593784 -0.250705 -0.764570
			-0.213565 -0.194488 -0.957374
			 0.025454 -0.262493 -0.964598
			-0.192267 -0.184336 -0.963874
			-0.431227 -0.168924  0.886289
			-0.455395 -0.081503  0.886551
			-0.426830 -0.215177  0.878359
			-0.433396  0.100698  0.895560
			-0.390247  0.021970  0.920448
			-0.428622  0.076093  0.900274
			-0.515601 -0.067769  0.854145
			-0.262778 -0.130732  0.955959
			-0.142429 -0.233337  0.961909
			-0.095394 -0.148809  0.984254
			-0.036134 -0.063775  0.997310
			-0.093600 -0.078424  0.992516
			-0.097934  0.116650  0.988333
			-0.140740  0.099254  0.985059
			-0.241689  0.084169  0.966697
			-0.218980 -0.023990  0.975434
			-0.254860  0.009257  0.966934
			-0.907208  0.142943  0.395653
			-0.903180  0.177537  0.390829
			-0.909352 -0.012658  0.415834
			-0.657274 -0.141731  0.740205
			-0.592096 -0.099296  0.799726
			-0.722077 -0.153880  0.674482
			-0.692145 -0.202838  0.692671
			-0.888785 -0.170551  0.425411
			-0.781809 -0.214178  0.585578
			-0.933979 -0.065513  0.351272
			-0.986632 -0.019703  0.161771
			-0.954738 -0.085867  0.284784
			-0.980262 -0.026334  0.195939
			-0.414272 -0.345406 -0.842065
			-0.471088 -0.389398 -0.791483
			-0.432871 -0.402988 -0.806364
			-0.591277 -0.362877 -0.720216
			-0.543652 -0.392688 -0.741780
			-0.960644 -0.087444  0.263660
			-0.889392  0.035524  0.455763
			-0.879553 -0.365823 -0.304237
			-0.768632 -0.456769 -0.447848
			-0.974490 -0.220102 -0.043877
			-0.982616 -0.042505  0.180719
			-0.619365 -0.379849 -0.687097
			-0.211205  0.021514 -0.977205
			-0.448392 -0.029519 -0.893350
			-0.446912 -0.043732 -0.893508
			-0.464137  0.008953 -0.885718
			-0.270056 -0.288912 -0.918477
			 0.110969 -0.294956 -0.949045
			-0.094662 -0.354595 -0.930216
			 0.178094 -0.293474 -0.939231
			-0.296220 -0.077410 -0.951978
			-0.264394 -0.162619 -0.950606
			 0.038702 -0.293737 -0.955103
			 0.952909 -0.286779 -0.098603
			 0.967197 -0.226962  0.114099
			 0.986275 -0.136697  0.092609
			 0.979419 -0.141318 -0.144112
			 0.997281 -0.073435 -0.006094
			 0.582337 -0.591720  0.557450
			 0.894322 -0.397273  0.205823
			 0.853278 -0.431641  0.292578
			 0.774761 -0.436229  0.457656
			 0.971470 -0.233545  0.041264
			-0.015424 -0.126777  0.991811
			 0.053469 -0.194895  0.979366
			 0.073398 -0.141434  0.987223
			 0.261235 -0.244877  0.933698
			 0.603582 -0.526511  0.598727
			 0.683290 -0.423873  0.594514
			 0.688753 -0.412097  0.596486
			 0.396567 -0.258401  0.880888
			 0.612505 -0.316358  0.724400
			 0.950666 -0.226047 -0.212456
			 0.939796 -0.264720 -0.216117
			 0.980056 -0.115238 -0.161896
			 0.903533 -0.133410 -0.407222
			 0.914613 -0.162664 -0.370167
			 0.484442 -0.231540 -0.843626
			 0.149169 -0.216171 -0.964893
			 0.169216 -0.210751 -0.962782
			 0.233505 -0.167669 -0.957790
			 0.802891 -0.225814 -0.551701
			 0.883343 -0.141892 -0.446735
			 0.685747 -0.214318 -0.695571
			 0.547179 -0.186116 -0.816061
			 0.469469 -0.200387 -0.859909
			-0.280263 -0.052483 -0.958488
			-0.207853 -0.206435 -0.956129
			-0.023652 -0.202242 -0.979050
			 0.267375 -0.206592 -0.941186
			-0.427319  0.035351 -0.903409
			-0.466536 -0.061258 -0.882378
			-0.358201  0.140531  0.923008
			-0.361797 -0.137194  0.922107
			-0.202431 -0.073957  0.976500
			-0.286981  0.096818  0.953031
			-0.429711  0.175292  0.885788
			-0.351933  0.280369  0.893049
			-0.336718  0.218610  0.915877
			-0.565451 -0.042422  0.823690
			-0.458936 -0.191459  0.867595
			-0.003928  0.044535  0.999000
			-0.275333  0.373073  0.886007
			-0.125639  0.281477  0.951307
			-0.875643  0.081050  0.476109
			-0.614763 -0.226857  0.755382
			-0.498667 -0.144826  0.854609
			-0.713298 -0.233252  0.660908
			-0.884890 -0.173411  0.432318
			-0.710147 -0.206128  0.673203
			-0.812299 -0.213517  0.542752
			-0.736920 -0.230502  0.635466
			-0.966401  0.029548  0.255336
			-0.924109  0.058589  0.377610
			-0.992315  0.015402  0.122773
			-0.989266  0.097448  0.108890
			-0.994708  0.067775  0.077213
			-0.991362  0.002926  0.131122
			-0.993800  0.082211  0.074848
			-0.922991 -0.119050  0.365943
			-0.983130  0.040584  0.178350
			-0.988250  0.063740  0.138921
			-0.980821  0.089761  0.173014
			-0.990253  0.044894  0.131848
			-0.987726  0.047646  0.148751
			-0.326637 -0.340394 -0.881726
			-0.445796 -0.311413 -0.839218
			-0.917797  0.007422  0.396980
			-0.688229 -0.400173 -0.605147
			-0.813415 -0.291831 -0.503181
			-0.949297 -0.205949 -0.237529
			-0.996198 -0.079981  0.034542
			-0.990249  0.041820  0.132886
			-0.448166 -0.415347 -0.791602
			-0.256805 -0.144243 -0.955639
			-0.243102 -0.159767 -0.956753
			-0.317291 -0.186647 -0.929779
			-0.466004  0.080458 -0.881117
			-0.437953 -0.076714 -0.895719
			 0.115651 -0.372935 -0.920622
			-0.009294 -0.408757 -0.912596
			-0.193032 -0.428288 -0.882784
			 0.197186 -0.368275 -0.908566
			-0.033336 -0.291438 -0.956009
			 0.159631 -0.400574 -0.902252
			 0.223785 -0.423041 -0.878042
			 0.992651 -0.087302  0.083795
			 0.998343 -0.008663  0.056894
			 0.953651 -0.190521 -0.232921
			 0.968710  0.003122 -0.248177
			 0.985639  0.126146 -0.112263
			 0.931388 -0.165984 -0.323985
			 0.870045 -0.423858  0.251727
			 0.908820 -0.379486  0.173311
			 0.876302 -0.396335  0.273887
			 0.952692 -0.277407 -0.124195
			 0.995868 -0.081175  0.040726
			 0.958519 -0.178052 -0.222573
			 0.187874 -0.126944  0.973955
			 0.820508 -0.407273  0.401116
			 0.760614 -0.376248  0.529060
			 0.429754 -0.205808  0.879179
			 0.561810 -0.196889  0.803495
			 0.701997 -0.296816  0.647379
			 0.919111 -0.261171 -0.295000
			 0.985197 -0.109280 -0.132078
			 0.944917 -0.139088 -0.296286
			 0.983887 -0.100011 -0.148203
			 0.938609 -0.015428 -0.344638
			 0.921494 -0.036282 -0.386695
			 0.489572 -0.148110 -0.859292
			 0.526756 -0.181926 -0.830320
			 0.112878 -0.203832 -0.972477
			 0.123344 -0.188794 -0.974240
			 0.332570 -0.128319 -0.934308
			 0.089752 -0.138212 -0.986328
			 0.065259 -0.053058 -0.996457
			 0.258626 -0.076741 -0.962924
			 0.780921 -0.213718 -0.586931
			 0.753567 -0.160089 -0.637580
			 0.871647 -0.051013 -0.487472
			 0.941747  0.008759 -0.336209
			 0.724806 -0.198860 -0.659630
			 0.462268 -0.135134 -0.876383
			 0.682916 -0.174438 -0.709364
			-0.081094 -0.115012 -0.990048
			-0.030149 -0.101001 -0.994429
			 0.259218 -0.184889 -0.947957
			 0.171818 -0.146258 -0.974211
			-0.550797  0.017026 -0.834466
			-0.306726 -0.003954 -0.951790
			-0.052224 -0.162006  0.985407
			-0.283804 -0.200270  0.937735
			-0.022208  0.008753  0.999715
			 0.151790 -0.125219  0.980449
			-0.177324  0.188528  0.965926
			-0.267362  0.355789  0.895506
			-0.068550  0.176654  0.981883
			 0.135635 -0.012388  0.990681
			-0.077658  0.098869  0.992066
			-0.029128  0.089056  0.995601
			-0.207335  0.491715  0.845712
			-0.275558  0.441055  0.854130
			-0.105116  0.301172  0.947759
			-0.152467  0.482064  0.862768
			-0.361413 -0.225884  0.904631
			-0.569633 -0.318234  0.757789
			-0.407072 -0.255620  0.876898
			-0.681435 -0.297413  0.668724
			-0.781550 -0.262840  0.565770
			-0.995032  0.080979 -0.057910
			-0.985339  0.118137  0.123085
			-0.974785  0.115329  0.191033
			-0.990961  0.080021 -0.107672
			-0.974118  0.148396  0.170507
			-0.996975  0.064950  0.042681
			-0.978627  0.084554  0.187454
			-0.957033  0.123432  0.262399
			-0.987405  0.102860  0.120210
			-0.995379  0.092228 -0.026751
			-0.979891  0.015791  0.198909
			-0.932061 -0.109476  0.345365
			-0.992088  0.102487  0.072513
			-0.999335 -0.036226  0.004077
			-0.610951 -0.387896 -0.690128
			-0.833950 -0.241914 -0.495990
			-0.968267 -0.087521 -0.234094
			-0.430223 -0.530799 -0.730179
			-0.497593 -0.498260 -0.710027
			-0.101857 -0.314026 -0.943935
			-0.226542 -0.291075 -0.929491
			-0.164449 -0.333892 -0.928156
			-0.480224  0.033039 -0.876523
			-0.283305 -0.135371 -0.949428
			-0.365098 -0.018520 -0.930785
			-0.257281 -0.260979 -0.930428
			 0.193166 -0.480570 -0.855418
			 0.003781 -0.514504 -0.857480
			-0.340161 -0.616739 -0.709875
			-0.132686 -0.613928 -0.778130
			 0.110400 -0.419532 -0.901002
			 0.997472  0.060803 -0.036764
			 0.964714  0.180207 -0.191972
			 0.957338  0.278158 -0.078311
			 0.947664  0.313225 -0.061836
			 0.936615 -0.324729  0.131542
			 0.930084 -0.269905 -0.249190
			 0.952168 -0.277808 -0.127279
			 0.995340 -0.038488 -0.088414
			 0.893443 -0.233346 -0.383809
			 0.924747 -0.273080 -0.265085
			 0.943141 -0.047566 -0.328973
			 0.902220 -0.090719 -0.421626
			 0.377525 -0.114927  0.918840
			 0.832465 -0.327062  0.447251
			 0.689446 -0.273683  0.670643
			 0.766431 -0.208374  0.607589
			 0.357273 -0.053590  0.932461
			 0.557226 -0.079892  0.826508
			 0.971179  0.141316 -0.191940
			 0.937615  0.080753 -0.338168
			-0.124631 -0.048611 -0.991012
			 0.056744 -0.012219 -0.998314
			-0.166062 -0.041261 -0.985252
			 0.173086 -0.006852 -0.984883
			 0.329925 -0.033909 -0.943398
			 0.687277 -0.065751 -0.723414
			 0.734641 -0.139631 -0.663932
			 0.946302  0.078948 -0.313495
			 0.789383  0.038847 -0.612671
			 0.962641  0.109254 -0.247763
			 0.574172 -0.120814 -0.809772
			 0.554085 -0.030447 -0.831903
			 0.943119 -0.014163 -0.332155
			 0.804417 -0.022470 -0.593640
			 0.047227 -0.091945 -0.994644
			 0.203647 -0.031783 -0.978529
			-0.170370 -0.000173 -0.985380
			 0.587421  0.019213 -0.809053
			 0.086102 -0.189198  0.978157
			-0.192630 -0.210325  0.958466
			 0.024918 -0.012004  0.999617
			 0.222075 -0.081834  0.971589
			-0.110703  0.309019  0.944591
			 0.048300  0.003184  0.998828
			 0.180692  0.070356  0.981020
			 0.092550  0.109077  0.989715
			-0.121476  0.282450  0.951560
			 0.082770  0.178129  0.980520
			-0.175187  0.207631  0.962392
			-0.110305  0.298263  0.948089
			-0.160303  0.215015  0.963365
			-0.196709  0.426202  0.882982
			-0.168088  0.427084  0.888451
			-0.238416  0.447499  0.861918
			-0.333354  0.410155  0.848910
			-0.106257 -0.259745  0.959813
			-0.404473 -0.318650  0.857242
			-0.602315 -0.388351  0.697424
			-0.453222 -0.435472  0.777788
			-0.509634 -0.399665  0.761932
			-0.063203 -0.314956  0.947000
			-0.652221 -0.355730  0.669376
			-0.780290 -0.180278  0.598872
			-0.848191 -0.132607  0.512823
			-0.990282  0.098876 -0.097796
			-0.969955  0.117305 -0.213137
			-0.980846  0.021138  0.193635
			-0.996135  0.056295  0.067421
			-0.997889  0.055221  0.034173
			-0.983489 -0.023729  0.179406
			-0.989433  0.068794  0.127628
			-0.938850  0.103520 -0.328396
			-0.961638  0.024006 -0.273270
			-0.990244  0.012814 -0.138757
			-0.972643  0.184245  0.141487
			-0.952398  0.217632  0.213483
			-0.994875  0.072384  0.070602
			-0.951910  0.149287  0.267544
			-0.922096  0.241313  0.302501
			-0.907181  0.200818  0.369721
			-0.942986  0.228584  0.241925
			-0.952613  0.129104  0.275427
			-0.993890  0.025600 -0.107369
			-0.996928  0.068188  0.038535
			-0.978533  0.089662  0.185564
			-0.922568  0.128072  0.363959
			-0.995920  0.047698  0.076598
			-0.955864  0.116283  0.269818
			-0.968240  0.105123  0.226849
			-0.900205  0.187934  0.392824
			-0.946036  0.142826  0.290888
			-0.900775  0.176717  0.396707
			-0.989571  0.138020  0.041217
			-0.980309  0.135932 -0.143234
			-0.955977 -0.101643  0.275274
			-0.920228 -0.039659  0.389368
			-0.972175  0.076065 -0.221563
			-0.770410 -0.265985 -0.579414
			-0.578575 -0.408720 -0.705832
			-0.879165 -0.168619 -0.445686
			-0.909069 -0.102617 -0.403810
			-0.465282 -0.432406 -0.772358
			 0.006754 -0.398758 -0.917032
			 0.180654 -0.413867 -0.892232
			 0.110820 -0.315499 -0.942433
			-0.178792 -0.227036 -0.957334
			-0.040948 -0.055807 -0.997602
			-0.139472 -0.288152 -0.947373
			 0.043325 -0.632787 -0.773113
			 0.295463 -0.491009 -0.819519
			 0.199409 -0.611167 -0.765971
			-0.020091 -0.638153 -0.769648
			-0.520345 -0.536871 -0.664086
			-0.518662 -0.557046 -0.648606
			-0.279195 -0.681983 -0.675981
			-0.382130 -0.569478 -0.727785
			-0.286538 -0.710625 -0.642579
			-0.100834 -0.685591 -0.720970
			 0.934659  0.302755 -0.186421
			 0.956243  0.110531 -0.270892
			 0.977041  0.213047 -0.001364
			 0.943444  0.280163  0.177261
			 0.895620  0.442891  0.041393
			 0.891087 -0.292838  0.346714
			 0.953118 -0.250969  0.169058
			 0.969596 -0.196133  0.146342
			 0.965234 -0.231514 -0.121342
			 0.974833  0.025217 -0.221508
			 0.911969 -0.195311 -0.360787
			 0.819679 -0.148791 -0.553162
			 0.873039  0.104280 -0.476370
			 0.895442 -0.162553 -0.414440
			 0.850493 -0.042129 -0.524297
			 0.860463  0.088726 -0.501729
			 0.894581  0.132727 -0.426741
			 0.924460  0.018680 -0.380820
			 0.883993 -0.230871  0.406515
			 0.912527 -0.163935  0.374726
			 0.802163 -0.071899  0.592761
			 0.624416 -0.056597  0.779038
			 0.420975  0.019876  0.906855
			 0.272796  0.005243  0.962058
			 0.037409  0.092567  0.995004
			 0.994355  0.105670 -0.009605
			 0.162177  0.023993 -0.986470
			 0.339923  0.110421 -0.933948
			 0.456420  0.053320 -0.888165
			 0.927952  0.214269 -0.304948
			 0.851703  0.091172 -0.516033
			 0.871915  0.212568 -0.441111
			 0.599756  0.063412 -0.797667
			 0.706750  0.143650 -0.692726
			 0.956897  0.073266 -0.281033
			 0.379554 -0.161940  0.910887
			 0.198190 -0.245770  0.948851
			 0.466671 -0.003899  0.884422
			 0.082517  0.182173  0.979798
			-0.126838  0.224018  0.966296
			 0.319573  0.069187  0.945032
			 0.061945  0.153951  0.986135
			-0.173087  0.330640  0.927749
			 0.305913  0.188489  0.933214
			 0.022292  0.263297  0.964457
			-0.300961  0.371020  0.878502
			-0.391516  0.336413  0.856470
			-0.262793  0.176862  0.948504
			-0.190152  0.168705  0.967151
			-0.324481  0.322291  0.889292
			-0.203054 -0.409556  0.889400
			-0.268510 -0.440267  0.856777
			-0.333310 -0.320995  0.886491
			-0.631981 -0.232077  0.739419
			-0.680593 -0.263037  0.683816
			-0.480189 -0.234919  0.845122
			 0.042938 -0.321293  0.946006
			-0.804609 -0.046327  0.591995
			-0.760715 -0.085144  0.643477
			-0.862904 -0.001915  0.505365
			-0.957157  0.121886 -0.262666
			-0.922131  0.143052 -0.359459
			-0.986788  0.102244  0.125685
			-0.914463  0.157541  0.372744
			-0.996153  0.086614  0.013339
			-0.999070  0.039017 -0.018373
			-0.849914  0.095701 -0.518158
			-0.873097  0.158680 -0.461001
			-0.862196  0.037077 -0.505216
			-0.898114 -0.016699 -0.439446
			-0.933463  0.013110 -0.358434
			-0.928122  0.258217  0.268168
			-0.880783  0.269426  0.389398
			-0.912124  0.188204  0.364156
			-0.820910  0.271987  0.502125
			-0.773864  0.249747  0.582032
			-0.977890  0.027156 -0.207348
			-0.892033  0.006769 -0.451920
			-0.952776  0.013593 -0.303369
			-0.977761  0.010170 -0.209478
			-0.933960  0.112505  0.339208
			-0.999225  0.011812  0.037550
			-0.895560  0.149718  0.418995
			-0.960275  0.096784  0.261735
			-0.978002  0.074722  0.194755
			-0.952267  0.113514  0.283377
			-0.928646  0.132761  0.346398
			-0.834828  0.183015  0.519199
			-0.893616  0.167745  0.416309
			-0.910757  0.054399 -0.409344
			-0.940854  0.104334 -0.322347
			-0.884021 -0.057286 -0.463924
			-0.839247 -0.205032 -0.503613
			-0.774587 -0.299118 -0.557263
			-0.517575 -0.405142 -0.753642
			-0.654365 -0.445445 -0.611053
			 0.404356 -0.352810 -0.843814
			 0.132611 -0.341844 -0.930353
			 0.368221 -0.508740 -0.778201
			 0.744469 -0.190287 -0.639966
			 0.673284 -0.198072 -0.712359
			-0.078281 -0.210528 -0.974449
			 0.131693  0.054285 -0.989803
			 0.011822 -0.092786 -0.995616
			 0.115003  0.062698 -0.991385
			 0.131594 -0.657545 -0.741834
			 0.124169 -0.612019 -0.781035
			-0.676097 -0.342653 -0.652290
			-0.560357 -0.474905 -0.678576
			-0.141797 -0.496256 -0.856518
			-0.430654 -0.363856 -0.825922
			-0.224743 -0.744894 -0.628190
			-0.147707 -0.757630 -0.635751
			 0.013591 -0.606639 -0.794861
			 0.849911  0.406426 -0.335364
			 0.837458  0.287271 -0.464908
			 0.864410  0.371018  0.339324
			 0.937081  0.073190  0.341354
			 0.984686  0.026099  0.172371
			 0.933186  0.347720  0.090854
			 0.908949 -0.040624  0.414922
			 0.963977 -0.075958  0.254910
			 0.991316 -0.121735 -0.049735
			 0.935919 -0.081252 -0.342716