<?xml version="1.0"?>
<VTKFile type="PolyData" version="0.1" byte_order="LittleEndian" compressor="vtkZLibDataCompressor">
	<PolyData>
		<Piece NumberOfPoints="1769" NumberOfVerts="0" NumberOfLines="0" NumberOfStrips="0" NumberOfPolys="3534">
		<PointData Normals="Normals">
		<DataArray type="Float32" Name="Normals" NumberOfComponents="3" format="ascii">
			 0.642222 -0.285917  0.711198
			 0.567356 -0.408699  0.714893
			 0.715260 -0.198873  0.669965
			 0.622178 -0.429002  0.654868
			 0.597432 -0.488391  0.636041
			 0.667295 -0.548411  0.503947
			 0.684049 -0.314045  0.658371
			 0.370566 -0.582638  0.723335
			 0.456328 -0.497744  0.737574
			 0.556480 -0.267726  0.786545
			 0.744077 -0.186466  0.641544
			 0.605912 -0.205353  0.768570
			 0.557884 -0.672164  0.486786
			 0.406936 -0.724201  0.556719
			 0.417245 -0.501310  0.758020
			 0.528248 -0.475888  0.703196
			 0.794518 -0.565876  0.220286
			 0.776656 -0.257932  0.574697
			 0.877706 -0.388740  0.280204
			 0.609627 -0.759954  0.225444
			 0.393602 -0.279073  0.875897
			 0.529086 -0.181564  0.828916
			 0.544636 -0.323209  0.773891
			 0.397131 -0.305762  0.865331
			 0.285699 -0.208053  0.935462
			 0.213039 -0.253887  0.943481
			 0.285444 -0.108918  0.952186
			 0.436698 -0.844139  0.311006
			 0.261260 -0.681780  0.683315
			 0.329686 -0.876524  0.350733
			 0.156645 -0.765269  0.624360
			 0.119159 -0.471930  0.873546
			 0.892967 -0.447422  0.049238
			 0.710700 -0.694671 -0.111073
			 0.702198 -0.086840  0.706666
			 0.822172 -0.166832  0.544243
			 0.760488 -0.049921  0.647431
			 0.929254 -0.250560  0.271491
			 0.949434 -0.313499  0.017112
			 0.481993 -0.875620  0.031168
			 0.172872 -0.118261  0.977819
			 0.055659  0.015401  0.998331
			 0.231366 -0.064959  0.970696
			 0.453457 -0.005390  0.891262
			 0.568046  0.047255  0.821639
			 0.245856  0.100358  0.964097
			 0.246657 -0.249221  0.936509
			 0.055460 -0.089217  0.994467
			 0.045807 -0.594650  0.802679
			 0.084648 -0.849595  0.520599
			 0.095503 -0.963511  0.250050
			 0.333272 -0.942440  0.027149
			-0.036718 -0.689226  0.723615
			 0.002477 -0.583093  0.812401
			 0.458066 -0.397404  0.795139
			 0.873993 -0.471101 -0.119166
			 0.579261 -0.744438 -0.332067
			 0.663431 -0.670057 -0.332992
			 0.746330 -0.575074 -0.335085
			 0.505469 -0.846681 -0.166230
			 0.525908 -0.782217 -0.334002
			 0.579199  0.071983  0.812002
			 0.667099 -0.005375  0.744950
			 0.932896 -0.205566  0.295716
			 0.835139 -0.014648  0.549844
			 0.978768 -0.180797  0.096572
			 0.985882 -0.163309  0.036957
			 0.867646 -0.417376 -0.270163
			 0.969374 -0.232428 -0.079319
			-0.097387  0.038980  0.994483
			-0.027790  0.205321  0.978300
			-0.282890  0.191939  0.939751
			 0.419283  0.238178  0.876055
			 0.338692  0.288591  0.895546
			 0.215633  0.284787  0.934023
			 0.408601 -0.258204  0.875429
			-0.002337 -0.170092  0.985425
			 0.043704 -0.510855  0.858555
			-0.120529 -0.920711  0.371167
			-0.020468 -0.804427  0.593699
			 0.102085 -0.945613  0.308861
			-0.127525 -0.965479  0.227130
			 0.044971 -0.998507  0.030988
			 0.113458 -0.983250 -0.142645
			 0.342809 -0.932061 -0.117240
			-0.304261 -0.582885  0.753439
			-0.217053 -0.471976  0.854475
			 0.206222 -0.454452  0.866572
			-0.148843 -0.385200  0.910751
			 0.565757 -0.675185 -0.473333
			 0.631307 -0.559462 -0.537079
			 0.344498 -0.887460 -0.306162
			 0.323791 -0.820730 -0.470704
			 0.455030  0.239889  0.857555
			 0.648184  0.189833  0.737443
			 0.967556 -0.024737  0.251445
			 0.773693  0.220054  0.594118
			 0.897955  0.038922  0.438362
			 0.988050  0.071332  0.136636
			 0.994090 -0.108055  0.010475
			 0.911707 -0.337717 -0.233959
			-0.191811 -0.034486  0.980826
			-0.289851  0.167876  0.942234
			 0.026612  0.302316  0.952836
			-0.320188  0.237695  0.917050
			-0.387081  0.225757  0.893981
			-0.501606  0.367730  0.783049
			 0.205963  0.351679  0.913182
			 0.133292  0.418711  0.898284
			 0.279459  0.511219  0.812747
			-0.199255 -0.176758  0.963874
			 0.793088 -0.557963  0.244311
			-0.117021 -0.755898  0.644147
			 0.942809 -0.276865  0.185623
			 0.362690 -0.840102  0.403341
			-0.219686 -0.973531 -0.063054
			-0.258344 -0.946562  0.193078
			 0.053123 -0.946742 -0.317580
			-0.372799 -0.335944  0.864964
			-0.412796 -0.337198  0.846107
			-0.388435 -0.595195  0.703464
			-0.357701 -0.171331  0.917984
			 0.387974 -0.710214 -0.587428
			 0.492393 -0.531969 -0.688882
			 0.589183 -0.530964 -0.609048
			 0.770559 -0.479930 -0.419411
			 0.427020 -0.533238 -0.730282
			 0.088452 -0.880310 -0.466079
			 0.576350  0.353074  0.736994
			 0.912684  0.135832  0.385433
			 0.807263  0.320851  0.495359
			 0.646997  0.419579  0.636670
			 0.903611  0.257076  0.342635
			 0.989115  0.116533  0.089847
			 0.937349  0.296717  0.182581
			 0.873530  0.344588  0.343808
			 0.980837 -0.183610 -0.065164
			 0.998759 -0.036618  0.033762
			 0.981059  0.099139  0.166416
			 0.945864 -0.264343 -0.188320
			 0.811476 -0.388246 -0.436774
			-0.338142  0.078480  0.937817
			-0.137539  0.382241  0.913770
			-0.412864  0.423016  0.806598
			-0.360637  0.043587  0.931687
			-0.406893  0.111206  0.906682
			-0.361449  0.347786  0.865101
			-0.390697  0.620330  0.680107
			-0.365858  0.554241  0.747640
			-0.354337  0.565827  0.744503
			-0.023280  0.428720  0.903137
			-0.027760  0.565437  0.824324
			 0.457272  0.505325  0.731812
			 0.150565  0.630007  0.761854
			-0.145236  0.660409  0.736727
			-0.314289 -0.758033  0.571496
			-0.308896 -0.875039  0.372679
			-0.465456 -0.872911  0.146208
			-0.072722 -0.954477 -0.289285
			-0.541253 -0.840657  0.018480
			-0.191688 -0.931429 -0.309347
			-0.409683 -0.906416 -0.102812
			-0.353007 -0.905622  0.235021
			-0.421994 -0.109333  0.899982
			-0.467720 -0.253539  0.846732
			-0.441126 -0.481116  0.757585
			-0.431561 -0.053853  0.900475
			-0.403819 -0.707003  0.580583
			 0.196295 -0.769550 -0.607668
			 0.415949 -0.581474 -0.699196
			 0.466322 -0.480952 -0.742448
			 0.486743 -0.544183 -0.683334
			 0.370022 -0.543170 -0.753691
			-0.162909 -0.869429 -0.466427
			 0.816259  0.364433  0.448230
			 0.684377  0.475576  0.552680
			 0.359360  0.598316  0.716155
			 0.940895  0.271178  0.202928
			 0.821856  0.482317  0.303190
			 0.791703  0.495095  0.357893
			 0.959507 -0.193640 -0.204575
			 0.980203  0.007246 -0.197863
			 0.989263  0.125947  0.074132
			 0.924789  0.279295  0.258378
			 0.832794 -0.257730 -0.489928
			-0.217217  0.533670  0.817321
			-0.390394  0.140645  0.909841
			-0.397275  0.259230  0.880325
			-0.350383  0.556515  0.753341
			-0.286382  0.728528  0.622280
			-0.217229  0.636264  0.740256
			-0.335035  0.652854  0.679362
			-0.515489  0.609807  0.602002
			-0.534677  0.483041  0.693392
			-0.357598  0.456662  0.814607
			-0.387179  0.449023  0.805277
			-0.168364  0.657291  0.734590
			-0.177021  0.539475  0.823183
			 0.083483  0.657419  0.748886
			-0.090583  0.698006  0.710340
			-0.418242 -0.825384  0.379230
			-0.596370 -0.757654  0.265148
			-0.674850 -0.715449  0.180860
			-0.580503 -0.814258 -0.000114
			-0.692570 -0.712384  0.113380
			-0.410459 -0.861455 -0.299030
			-0.506656 -0.857838 -0.086105
			-0.589176 -0.328191  0.738351
			-0.538129 -0.048556  0.841463
			-0.498599 -0.548169  0.671499
			-0.499251 -0.628742  0.596182
			 0.020994 -0.819896 -0.572127
			 0.190719 -0.738206 -0.647053
			 0.371430 -0.579029 -0.725786
			 0.639445 -0.355654 -0.681631
			 0.267702 -0.619464 -0.737970
			 0.448807 -0.486831 -0.749378
			 0.386032 -0.568267 -0.726672
			 0.434023 -0.467025 -0.770397
			 0.491371 -0.480349 -0.726512
			-0.317833 -0.907736 -0.273856
			-0.186849 -0.886823 -0.422650
			-0.242443 -0.910134 -0.335973
			 0.369271  0.668632  0.645423
			 0.569359  0.629246  0.529037
			 0.129428  0.685382  0.716589
			 0.780783  0.536431  0.320344
			 0.580018  0.674278  0.457086
			 0.677671  0.620004  0.395421
			 0.611095  0.698486  0.372397
			 0.972185  0.126558 -0.197077
			 0.852759 -0.113131 -0.509905
			 0.963726  0.256574  0.073491
			 0.885257  0.407296  0.224569
			-0.536643  0.411830  0.736485
			-0.582331  0.172257  0.794492
			-0.556629  0.495764  0.666620
			-0.630890  0.549988  0.547257
			-0.193476  0.780034  0.595075
			-0.131639  0.759812  0.636677
			 0.023887  0.775940  0.630354
			-0.645629  0.436978  0.626270
			-0.770868  0.426955  0.472728
			-0.514401  0.422248  0.746390
			-0.695056  0.258861  0.670737
			-0.488305  0.384980  0.783166
			-0.527907  0.285363  0.799926
			-0.524895  0.340494  0.780096
			 0.000886  0.662740  0.748849
			 0.130503  0.647872  0.750487
			-0.114358  0.543552  0.831549
			-0.331688  0.404759  0.852146
			-0.244030 -0.749106  0.615865
			-0.542191 -0.711412  0.447126
			-0.647103 -0.636828  0.419176
			-0.675313 -0.633309  0.377985
			-0.801810 -0.551910  0.229120
			-0.653592 -0.756281 -0.029255
			-0.785461 -0.597625  0.160920
			-0.516120 -0.834466 -0.193099
			-0.703878 -0.112039  0.701429
			-0.620353 -0.402435  0.673207
			 0.176234 -0.570669  0.802047
			 0.183091 -0.740650 -0.646463
			 0.045115 -0.827831 -0.559161
			 0.411070 -0.470289 -0.780929
			 0.306006 -0.634781 -0.709516
			 0.693064 -0.257606 -0.673277
			 0.363076 -0.519348 -0.773598
			 0.608619 -0.331767 -0.720773
			 0.452589 -0.566790 -0.688412
			 0.423743 -0.483767 -0.765775
			 0.487524 -0.482202 -0.727874
			 0.476341 -0.519959 -0.709043
			 0.483479 -0.436918 -0.758519
			 0.445433 -0.544480 -0.710725
			-0.159810 -0.907167 -0.389241
			-0.522301 -0.848321 -0.086904
			-0.385302 -0.922302 -0.030025
			-0.363544 -0.913197 -0.184138
			 0.307433  0.735976  0.603178
			 0.415470  0.721503  0.553912
			 0.538914  0.770993  0.339325
			 0.729049  0.614429  0.301604
			 0.146229  0.767053  0.624698
			 0.367235  0.779854  0.506918
			 0.261657  0.857949  0.442108
			 0.919458 -0.000260 -0.393189
			 0.932924  0.357360  0.044124
			 0.954699  0.049725 -0.293390
			 0.922141  0.035013 -0.385266
			 0.684319 -0.194789 -0.702684
			 0.841745 -0.072417 -0.534996
			-0.757566  0.163193  0.632030
			-0.753388  0.346720  0.558741
			-0.822919  0.375112  0.426726
			-0.164623  0.732605  0.660447
			-0.162397  0.785524  0.597143
			-0.137694  0.734797  0.664164
			-0.843931  0.185730  0.503274
			-0.795062  0.305304  0.524086
			-0.734337  0.238284  0.635586
			-0.726537  0.069651  0.683588
			-0.600096  0.276910  0.750470
			-0.770825  0.080177  0.631982
			-0.541094  0.296513  0.786955
			-0.550907  0.262176  0.792316
			-0.511830  0.274596  0.814019
			-0.610523  0.209022  0.763918
			 0.145386  0.722951  0.675430
			 0.331417  0.711741  0.619345
			 0.333442  0.691888  0.640396
			 0.263197  0.664787  0.699132
			 0.024320  0.584064  0.811343
			-0.140683  0.503476  0.852479
			-0.371820  0.360855  0.855297
			 0.439517 -0.667492  0.601065
			-0.876936 -0.337563  0.342102
			-0.756070 -0.289887  0.586791
			 0.957443 -0.196362  0.211530
			-0.889300 -0.356375  0.286604
			-0.667404 -0.743942 -0.033493
			-0.830363 -0.535224  0.155026
			-0.899680 -0.289345  0.326888
			-0.596754 -0.797450 -0.089208
			-0.780951 -0.075910  0.619962
			-0.691135 -0.280402  0.666114
			 0.238886 -0.675381 -0.697707
			 0.032894 -0.801603 -0.596952
			 0.411190 -0.522967 -0.746611
			 0.539386 -0.320721 -0.778589
			 0.602627 -0.426071 -0.674762
			 0.561564 -0.472578 -0.679203
			 0.512875 -0.588288 -0.625201
			 0.690183 -0.254564 -0.677381
			 0.361218 -0.631437 -0.686155
			 0.425304 -0.490565 -0.760567
			 0.454142 -0.485808 -0.746824
			 0.345969 -0.658454 -0.668389
			-0.306584 -0.829685 -0.466506
			-0.216949 -0.813817 -0.539105
			-0.564151 -0.817568  0.115399
			-0.734218 -0.674366  0.078449
			-0.673876 -0.727738  0.127625
			-0.555705 -0.829024  0.062541
			-0.436444 -0.837269 -0.329389
			-0.648774 -0.755259 -0.093149
			 0.528840  0.758875  0.380048
			 0.374217  0.859969  0.347009
			 0.347271  0.888480  0.300011
			 0.485504  0.772536  0.409237
			 0.789541  0.566654  0.235645
			 0.012318  0.786086  0.617995
			 0.077514  0.884665  0.459738
			 0.967037  0.254442 -0.009958
			 0.818431 -0.124644 -0.560923
			 0.973270  0.121280 -0.195029
			 0.907868 -0.032104 -0.418025
			 0.663895 -0.185675 -0.724409
			 0.610907 -0.207636 -0.763989
			 0.511534 -0.307058 -0.802526
			-0.158948  0.801909  0.575914
			-0.035091  0.809546  0.586006
			-0.804609  0.308709  0.507250
			-0.896917 -0.008566  0.442116
			-0.847272  0.199707  0.492187
			-0.774501  0.198306  0.600686
			-0.732957  0.008305  0.680225
			-0.809180 -0.102488  0.578554
			-0.843566  0.001819  0.537023
			-0.649657  0.129586  0.749102
			-0.524133  0.226679  0.820915
			 0.209622  0.829932  0.516982
			 0.394538  0.818265  0.418070
			 0.493982  0.703711  0.510659
			 0.150779  0.582258  0.798900
			 0.320666  0.639694  0.698545
			 0.465973  0.663365  0.585505
			-0.066675  0.510508  0.857284
			-0.493168  0.231218  0.838644
			-0.256684  0.376049  0.890337
			-0.917102 -0.149804  0.369435
			-0.900547 -0.055801  0.431164
			-0.869494 -0.336942  0.361180
			-0.900968 -0.115597  0.418202
			-0.023963 -0.754965 -0.655327
			 0.131416 -0.702834 -0.699109
			 0.780826 -0.279154 -0.558913
			 0.605845 -0.426451 -0.671633
			 0.529755 -0.561713 -0.635483
			 0.541236 -0.524490 -0.657247
			 0.644824 -0.506798 -0.572152
			 0.583116 -0.464492 -0.666500
			 0.764169 -0.119440 -0.633861
			 0.281200 -0.668880 -0.688132
			 0.275589 -0.540551 -0.794893
			 0.086472 -0.614093 -0.784482
			 0.224427 -0.500805 -0.835959
			 0.372807 -0.675309 -0.636375
			 0.258042 -0.731733 -0.630858
			 0.431395 -0.649216 -0.626431
			 0.134044 -0.709079 -0.692271
			-0.637378 -0.710163 -0.299026
			-0.318466 -0.748637 -0.581482
			-0.184006 -0.774586 -0.605110
			-0.727233 -0.629889  0.272712
			-0.665521 -0.712615  0.221948
			-0.772362 -0.562053  0.295893
			-0.761233 -0.634448  0.134162
			-0.589588 -0.769153 -0.246557
			-0.846291 -0.532621  0.010289
			-0.734846 -0.664033 -0.138063
			 0.156487  0.893712  0.420465
			 0.616670  0.733675  0.285375
			 0.311976  0.844730  0.434858
			 0.767710  0.610481  0.194771
			 0.888217  0.452510  0.079404
			 0.945280  0.316553 -0.078989
			 0.844473  0.012776 -0.535446
			 0.731010 -0.027986 -0.681793
			 0.933956  0.179927 -0.308792
			 0.909247  0.391687 -0.140895
			 0.441108 -0.279783 -0.852728
			 0.576913 -0.044167 -0.815610
			 0.491480 -0.164978 -0.855120
			-0.843316 -0.124183  0.522874
			-0.941304 -0.175272  0.288490
			-0.884198 -0.045403  0.464901
			-0.680768  0.017734  0.732285
			-0.772398 -0.083677  0.629602
			-0.588963  0.151172  0.793895
			 0.274439  0.868199  0.413417
			 0.581126  0.783664  0.219462
			 0.377537  0.906560  0.188719
			 0.631454  0.698430  0.336841
			 0.652814  0.683057  0.327516
			 0.686049  0.619201  0.382004
			 0.330226  0.615153  0.715918
			 0.094408  0.508488  0.855878
			 0.323321  0.573164  0.752958
			 0.405085  0.652734  0.640190
			 0.749191  0.576824  0.325557
			 0.601647  0.591745  0.536525
			-0.053553  0.476238  0.877684
			-0.432810  0.239865  0.868988
			-0.150331  0.399857  0.904166
			-0.881858 -0.179964  0.435820
			-0.847895 -0.441028  0.294226
			-0.091006 -0.599811 -0.794949
			 0.044126 -0.538489 -0.841476
			 0.741398 -0.324380 -0.587458
			 0.868232 -0.117419 -0.482064
			 0.641281 -0.515363 -0.568472
			 0.679813 -0.463112 -0.568667
			 0.731676 -0.354339 -0.582318
			 0.910081  0.074272 -0.407721
			 0.842934  0.164394 -0.512285
			 0.692629  0.106987 -0.713315
			 0.073016 -0.515038 -0.854052
			-0.164515 -0.638826 -0.751556
			-0.212338 -0.773149 -0.597623
			 0.297866 -0.744797 -0.597121
			 0.081790 -0.804581 -0.588183
			 0.214888 -0.783725 -0.582751
			 0.397861 -0.679518 -0.616411
			-0.855104 -0.512459 -0.078628
			-0.597985 -0.718545 -0.355115
			-0.909002 -0.413062  0.055640
			-0.506661 -0.706901 -0.493544
			-0.225184 -0.533254 -0.815434
			-0.443727 -0.554927 -0.703678
			-0.910544 -0.330185  0.248772
			 0.520742  0.815089  0.253885
			 0.694282  0.699714  0.168442
			 0.825636  0.562113  0.048525
			 0.750038  0.216895 -0.624820
			 0.862425  0.295839 -0.410734
			 0.902413  0.266222 -0.338788
			 0.631725  0.271384 -0.726137
			 0.894172  0.380901 -0.235311
			 0.896903  0.429889 -0.103731
			 0.726414  0.681966  0.085113
			 0.578460  0.106847 -0.808682
			-0.869042 -0.401635  0.288885
			-0.898783 -0.390880  0.198500
			-0.961605 -0.273157 -0.026484
			-0.996283 -0.085261 -0.012238
			-0.983346 -0.180013 -0.025019
			-0.963160 -0.190249  0.190075
			-0.919798 -0.384338  0.079092
			-0.933209 -0.151195  0.325977
			-0.750485 -0.109881  0.651689
			-0.712688 -0.068709  0.698108
			-0.551911  0.105784  0.827166
			-0.622679  0.032458  0.781804
			-0.821160 -0.225455  0.524276
			-0.785522 -0.144903  0.601629
			 0.471539  0.847944  0.242161
			 0.586244  0.805427  0.087214
			 0.727195  0.672786  0.136182
			 0.460202  0.881386  0.106641
			 0.488532  0.857153 -0.163171
			 0.567442  0.823128 -0.021656
			 0.742746  0.643371  0.185477
			 0.819079  0.565931  0.093976
			 0.864354  0.485651  0.130518
			 0.875375  0.460646  0.146714
			 0.221555  0.480315  0.848652
			 0.058161  0.353080  0.933784
			 0.033246  0.444313  0.895255
			 0.340580  0.459580  0.820239
			 0.472644  0.532870  0.701895
			 0.899385  0.422208  0.113343
			 0.838990  0.470549  0.273274
			 0.547676  0.533395  0.644625
			 0.728938  0.473783  0.494145
			-0.322651  0.308928  0.894684
			-0.478416  0.176910  0.860129
			-0.120258 -0.440537 -0.889644
			-0.246790 -0.383573 -0.889925
			-0.291099 -0.533333 -0.794240
			 0.884525 -0.092417 -0.457247
			 0.925350  0.003424 -0.379099
			 0.542321 -0.555697 -0.630150
			 0.368302 -0.724934 -0.582087
			 0.658688 -0.406067 -0.633435
			 0.782002 -0.276431 -0.558623
			 0.931984  0.011731 -0.362310
			 0.937074  0.240974 -0.252633
			 0.869163  0.249005 -0.427262
			 0.776668  0.338346 -0.531327
			 0.680975  0.430280 -0.592564
			-0.342437 -0.705234 -0.620792
			-0.369840 -0.800386 -0.471806
			-0.273362 -0.849875 -0.450539
			 0.236277 -0.737863 -0.632243
			 0.012889 -0.848548 -0.528962
			-0.777572 -0.553541 -0.298284
			-0.716652 -0.488378 -0.497892
			-0.279060 -0.296130 -0.913473
			-0.454887 -0.217507 -0.863579
			-0.762767 -0.202590 -0.614121
			 0.627725  0.760710  0.165175
			 0.771162  0.415891 -0.482021
			 0.574774  0.487927 -0.656934
			 0.652480  0.557547 -0.513236
			 0.941959  0.280565 -0.184383
			 0.781271  0.543024 -0.307799
			 0.561466  0.597959 -0.572015
			 0.894032  0.439582 -0.086451
			 0.705123  0.708080  0.037743
			-0.830373 -0.545372  0.114239
			-0.800566 -0.590821  0.100125
			-0.824206 -0.530257  0.198777
			-0.863408 -0.504336  0.013122
			-0.977556 -0.185095 -0.100617
			-0.899658 -0.357421 -0.250730
			-0.968960 -0.033608 -0.244924
			-0.880992 -0.461935 -0.102313
			-0.908552 -0.201917 -0.365737
			-0.775173 -0.167734  0.609075
			-0.766467 -0.159000  0.622293
			-0.687369 -0.152925  0.710026
			-0.562977  0.064719  0.823935
			-0.500571  0.137678  0.854677
			-0.643537 -0.056773  0.763307
			-0.814499 -0.236483  0.529780
			-0.842094 -0.402421  0.359075
			 0.673338  0.738956  0.023665
			 0.827785  0.559940 -0.035199
			 0.493558  0.854964 -0.159490
			 0.518751  0.786248 -0.335726
			 0.696626  0.674800 -0.243632
			 0.921827  0.370459 -0.113997
			 0.839414  0.469271 -0.274168
			 0.927916  0.371650 -0.029121
			 0.947048  0.321047 -0.005424
			 0.260387  0.369554  0.891980
			-0.270215  0.200238  0.941748
			 0.068107  0.248144  0.966326
			 0.162253  0.315525  0.934943
			 0.323616  0.235019  0.916536
			 0.163813  0.244308  0.955761
			 0.415720  0.408212  0.812736
			 0.504069  0.474565  0.721597
			 0.509651  0.541035  0.668982
			 0.936069  0.333867  0.110939
			 0.783413  0.402035  0.473954
			 0.571449  0.443426  0.690521
			 0.444432  0.450899  0.774061
			 0.544020  0.489759  0.681306
			-0.447489 -0.292875 -0.844972
			-0.426638 -0.469849 -0.772801
			 0.365182 -0.648503 -0.667897
			 0.406504 -0.507839 -0.759509
			 0.276979 -0.731012 -0.623622
			 0.706299 -0.233719 -0.668219
			 0.508319 -0.458439 -0.729003
			 0.897027 -0.078248 -0.434994
			 0.825419 -0.091830 -0.557002
			 0.967916  0.204010 -0.146693
			 0.957706  0.109182 -0.266230
			 0.966476  0.211424 -0.145682
			 0.893113  0.291017 -0.343013
			 0.704508  0.502208 -0.501453
			 0.686550  0.596786 -0.415325
			-0.362198 -0.802948 -0.473379
			-0.545497 -0.592665 -0.592605
			-0.331029 -0.846627 -0.416704
			-0.264775 -0.886617 -0.379215
			 0.262078 -0.600611 -0.755369
			 0.156464 -0.705889 -0.690825
			-0.255431 -0.906871 -0.335171
			-0.042024 -0.830025 -0.556141
			-0.929491 -0.240891 -0.279317
			-0.489878 -0.108514 -0.865011
			-0.766169 -0.024163 -0.642185
			 0.485692  0.752936 -0.444063
			 0.552757  0.662412 -0.505638
			 0.582300  0.722765 -0.372208
			-0.708692 -0.702206 -0.068277
			-0.751394 -0.646640 -0.131391
			-0.804618 -0.579306  0.130360
			-0.772407 -0.633047  0.051361
			-0.835846 -0.480969  0.264632
			-0.787546 -0.504201 -0.354334
			-0.857385 -0.250881 -0.449389
			-0.767161 -0.255701  0.588287
			-0.612996 -0.339290  0.713526
			-0.552878 -0.284536  0.783176
			-0.574097 -0.077188  0.815141
			-0.405468  0.073315  0.911165
			-0.832754 -0.428023  0.351166
			-0.804224 -0.585798  0.100321
			 0.726882  0.636603 -0.257643
			 0.962681  0.262082 -0.067515
			-0.236111  0.116780  0.964683
			 0.049791  0.217191  0.974858
			 0.228154  0.263123  0.937396
			 0.472704  0.313083  0.823729
			 0.196356  0.159093  0.967540
			 0.494316  0.227084  0.839097
			 0.378936  0.219459  0.899025
			 0.142248  0.227448  0.963345
			 0.586668  0.383476  0.713279
			 0.819042  0.325349  0.472566
			 0.974011  0.205568  0.095101
			 0.970407  0.238436 -0.038197
			 0.965333  0.253362 -0.062769
			 0.630534  0.349352  0.693094
			 0.412696  0.363370  0.835251
			 0.470808  0.393227  0.789755
			-0.645396 -0.234266 -0.727038
			 0.334362 -0.496053 -0.801332
			 0.465960 -0.457776 -0.757180
			 0.344669 -0.495428 -0.797342
			 0.249347 -0.524029 -0.814383
			 0.758262  0.001917 -0.651947
			 0.694363 -0.143395 -0.705193
			 0.582886 -0.319564 -0.747076
			 0.340294 -0.503579 -0.794108
			 0.909589  0.053881 -0.412000
			 0.975332  0.139787 -0.170842
			 0.966877  0.197471 -0.161725
			 0.972294  0.140650 -0.186715
			-0.439393 -0.808871 -0.390720
			-0.770338 -0.424260 -0.476007
			-0.634119 -0.687176 -0.354518
			-0.558543 -0.808260 -0.186402
			 0.116912 -0.674947 -0.728545
			 0.124081 -0.529527 -0.839169
			-0.476722 -0.848382 -0.230185
			-0.320311 -0.882783 -0.343650
			-0.264585 -0.867775 -0.420668
			-0.131838 -0.805054 -0.578365
			-0.807279 -0.155876 -0.569213
			-0.558271 -0.790124 -0.253058
			-0.776959 -0.621897  0.097872
			-0.756933 -0.651597  0.049738
			-0.750276 -0.464679  0.470276
			-0.673536 -0.419022  0.608908
			-0.583646 -0.299739  0.754661
			-0.527253 -0.376972  0.761509
			-0.652926 -0.332311  0.680630
			-0.637128 -0.422515  0.644630
			-0.482157 -0.379707  0.789524
			-0.446094 -0.307982  0.840325
			-0.472842 -0.150324  0.868230
			-0.613498 -0.457151  0.643920
			-0.303451  0.003308  0.952841
			-0.803750 -0.569086  0.173571
			-0.716811 -0.655990  0.236347
			-0.118589  0.111245  0.986692
			-0.203540  0.057066  0.977402
			-0.041201  0.144438  0.988656
			 0.005079  0.268247  0.963337
			 0.052760  0.309048  0.949582
			 0.191464  0.261169  0.946114
			 0.595232  0.264903  0.758634
			 0.161454  0.271865  0.948695
			 0.310218  0.366425  0.877210
			 0.028108  0.184405  0.982448
			 0.595362  0.298604  0.745909
			 0.484686  0.354179  0.799773
			 0.384162  0.379006  0.841887
			 0.580473  0.305029  0.754989
			 0.616650  0.274638  0.737778
			 0.898316  0.204618  0.388794
			 0.709685  0.240097  0.662345
			 0.887588  0.209980  0.409994
			 0.951265  0.176337 -0.252982
			 0.999470  0.006834  0.031820
			 0.970975  0.061154  0.231232
			 0.966415  0.069911 -0.247296
			 0.949087  0.124383 -0.289418
			 0.969321  0.177950 -0.169558
			 0.423529  0.224303  0.877674
			 0.395900  0.308571  0.864897
			 0.273392  0.268838  0.923571
			 0.371838 -0.449964 -0.811954
			 0.450201 -0.396135 -0.800248
			 0.873754 -0.258064 -0.412259
			 0.790347 -0.343637 -0.507213
			 0.168002 -0.516413 -0.839698
			 0.763834 -0.358125 -0.536939
			 0.157132 -0.549894 -0.820321
			 0.734899 -0.042820 -0.676823
			 0.757326  0.073114 -0.648932
			 0.701862  0.027369 -0.711788
			 0.746345 -0.019036 -0.665287
			 0.513247 -0.315242 -0.798248
			 0.950741  0.078532 -0.299873
			 0.826795 -0.049977 -0.560279
			-0.713604 -0.697278  0.067625
			-0.596524 -0.800424 -0.058994
			 0.004245 -0.640693 -0.767785
			 0.019609 -0.504060 -0.863446
			-0.352850 -0.868105 -0.349127
			-0.520716 -0.835821 -0.173950
			-0.176810 -0.809875 -0.559322
			-0.705800 -0.626441  0.330784
			-0.702305 -0.509858  0.496802
			-0.603652 -0.552796  0.574474
			-0.507294 -0.314229  0.802442
			-0.760244 -0.244262  0.601968
			-0.644179 -0.286550  0.709170
			-0.432263 -0.469712  0.769752
			-0.735920 -0.421538  0.529838
			-0.706817 -0.512108  0.488012
			-0.407228 -0.353148  0.842290
			-0.575885 -0.444349  0.686229
			-0.453742 -0.356156  0.816867
			-0.408572 -0.185917  0.893590
			-0.472358 -0.267477  0.839842
			-0.433288 -0.364609  0.824210
			-0.296172 -0.126134  0.946769
			-0.744590 -0.363924  0.559593
			-0.605620 -0.794427  0.045928
			-0.606980 -0.781310  0.145365
			-0.141080  0.088895  0.985999
			-0.110322  0.248533  0.962320
			-0.083794  0.442518  0.892836
			-0.130157  0.417049  0.899516
			 0.007484  0.520988  0.853532
			 0.022179  0.301322  0.953264
			 0.190126  0.454701  0.870114
			 0.078543  0.411430  0.908051
			 0.293130  0.557214  0.776909
			 0.208400  0.555568  0.804931
			 0.556254  0.448898  0.699337
			 0.598172  0.381744  0.704600
			 0.418456  0.539790  0.730425
			 0.497808  0.296651  0.814976
			 0.355930  0.155539  0.921478
			 0.973694  0.040710  0.224195
			 0.857470  0.157544  0.489822
			 0.822988  0.147625  0.548541
			 0.648947  0.070641  0.757547
			 0.978356  0.068180  0.195375
			 0.995606 -0.023528  0.090631
			 0.852181 -0.013220 -0.523080
			 0.780002  0.011554 -0.625671
			 0.849197  0.070364 -0.523367
			 0.997241 -0.039185  0.063044
			 0.979493 -0.066100 -0.190326
			 0.772253 -0.071701 -0.631257
			 0.836186 -0.060344 -0.545117
			 0.907146 -0.046635 -0.418223
			 0.761509 -0.141213 -0.632585
			 0.537351  0.168359  0.826383
			 0.418873  0.110634  0.901280
			 0.231037  0.252915  0.939498
			 0.380806  0.155543  0.911478
			 0.765210  0.137271  0.628976
			 0.271721 -0.514626 -0.813220
			 0.354635 -0.552714 -0.754149
			 0.179387 -0.554252 -0.812789
			 0.000392 -0.593947 -0.804504
			 0.173316 -0.552879 -0.815038
			 0.238856 -0.491510 -0.837476
			 0.636666 -0.173428 -0.751385
			 0.794102  0.151932 -0.588488
			 0.653911  0.008936 -0.756518
			 0.784992  0.166368 -0.596748
			 0.672043 -0.058823 -0.738172
			 0.819814  0.187173 -0.541175
			 0.489940 -0.289117 -0.822418
			-0.502220 -0.856403 -0.119787
			-0.014626 -0.565364 -0.824712
			-0.027435 -0.452653 -0.891265
			-0.382897 -0.888034 -0.254531
			-0.153549 -0.795608 -0.586029
			-0.155628 -0.794186 -0.587408
			-0.148279 -0.731692 -0.665312
			-0.613003 -0.686143  0.391709
			-0.652272 -0.690323  0.313043
			-0.667111 -0.644953  0.372826
			-0.497577 -0.658789  0.564283
			-0.424505 -0.518431  0.742310
			-0.550367 -0.413609  0.725275
			-0.820480 -0.204840  0.533716
			-0.903695 -0.168703  0.393540
			-0.836480 -0.357209  0.415576
			-0.619722 -0.512067  0.594754
			-0.724844 -0.372299  0.579650
			-0.367810 -0.629039  0.684855
			-0.735539 -0.516318  0.438633
			-0.747167 -0.514415  0.420854
			-0.620603 -0.351601  0.700877
			-0.663365 -0.484953  0.569884
			-0.548494 -0.327109  0.769515
			-0.596709 -0.144591  0.789323
			-0.525049 -0.129490  0.841163
			-0.612901 -0.155925  0.774622
			-0.649204 -0.204097  0.732719
			-0.336622 -0.101497  0.936154
			-0.198539  0.026552  0.979733
			-0.819318 -0.388115  0.422001
			-0.861810 -0.049961  0.504764
			-0.791247 -0.098002  0.603592
			-0.904757 -0.142246  0.401473
			-0.353157 -0.934775  0.038407
			-0.482123 -0.851190  0.207441
			-0.185246  0.211293  0.959708
			-0.214856  0.361613  0.907234
			-0.166356  0.635581  0.753898
			-0.247243  0.552624  0.795913
			 0.119522  0.615248  0.779220
			-0.035784  0.737090  0.674846
			 0.247541  0.727320  0.640101
			 0.105092  0.737196  0.667457
			 0.483885  0.576781  0.658163
			 0.572070  0.548833  0.609524
			 0.569119  0.515926  0.640254
			 0.338561  0.731281  0.592118
			 0.235628  0.235707  0.942826
			 0.317174  0.470119  0.823644
			 0.050854  0.052294  0.997336
			 0.991491 -0.116118 -0.058838
			 0.936681  0.117305  0.329950
			 0.948500  0.073590  0.308111
			 0.922979  0.127722  0.363038
			 0.817491  0.044510  0.574219
			 0.936445  0.123420  0.328387
			 0.677738  0.223767  0.700428
			 0.692251 -0.009583  0.721593
			 0.997382 -0.030064  0.065767
			 0.975738 -0.174373 -0.132399
			 0.997752 -0.066059 -0.011284
			 0.973333 -0.152846 -0.171059
			 0.607826 -0.167362 -0.776233