<?xml version="1.0"?>
<VTKFile type="PolyData" version="0.1" byte_order="LittleEndian" compressor="vtkZLibDataCompressor">
	<PolyData>
		<Piece NumberOfPoints="2591" NumberOfVerts="0" NumberOfLines="0" NumberOfStrips="0" NumberOfPolys="5178">
		<PointData Normals="Normals">
		<DataArray type="Float32" Name="Normals" NumberOfComponents="3" format="ascii">
			-0.303436 -0.499832 -0.811231
			-0.532726 -0.419928 -0.734754
			-0.591955 -0.390798 -0.704888
			-0.385433 -0.406671 -0.828288
			-0.200989 -0.647610 -0.734986
			-0.014594 -0.489435 -0.871918
			-0.044310 -0.635396 -0.770914
			-0.641751 -0.365114 -0.674424
			-0.517618 -0.412319 -0.749710
			-0.644229 -0.333622 -0.688233
			-0.538718 -0.470729 -0.698711
			 0.038189 -0.354768 -0.934174
			-0.470527 -0.509547 -0.720393
			-0.155551 -0.251633 -0.955241
			-0.246875 -0.296817 -0.922471
			-0.365366 -0.411672 -0.834886
			-0.103390 -0.835707 -0.539356
			-0.322832 -0.585868 -0.743329
			 0.000681 -0.832583 -0.553900
			 0.173671 -0.768345 -0.616023
			 0.212366 -0.550218 -0.807565
			 0.221720 -0.397459 -0.890431
			 0.271168 -0.383819 -0.882695
			 0.144271 -0.667138 -0.730831
			-0.547494 -0.404389 -0.732612
			-0.506360 -0.353809 -0.786396
			-0.535410 -0.296330 -0.790901
			-0.484555 -0.516053 -0.706326
			 0.463176 -0.236946 -0.854005
			 0.463633 -0.298448 -0.834250
			 0.141864 -0.199727 -0.969528
			-0.532410 -0.545762 -0.647058
			-0.390871 -0.541904 -0.744016
			-0.090385 -0.228324 -0.969381
			 0.176589 -0.063635 -0.982225
			-0.061773 -0.129243 -0.989687
			-0.129816 -0.164961 -0.977720
			-0.303312 -0.369792 -0.878212
			-0.248910 -0.274523 -0.928806
			-0.322412 -0.703769 -0.633056
			 0.117180 -0.933198 -0.339721
			 0.064955 -0.942028 -0.329187
			-0.159223 -0.864663 -0.476452
			-0.481445 -0.431863 -0.762696
			 0.145613 -0.913447 -0.380015
			 0.274267 -0.857971 -0.434354
			 0.515487 -0.772539 -0.370752
			 0.429285 -0.692875 -0.579343
			 0.411314 -0.535690 -0.737466
			 0.549691 -0.582342 -0.598930
			 0.427401 -0.410405 -0.805540
			 0.429506 -0.265283 -0.863220
			 0.538769 -0.174235 -0.824239
			 0.519897 -0.298596 -0.800342
			 0.473457 -0.221774 -0.852440
			-0.474931 -0.341006 -0.811268
			-0.482397 -0.402266 -0.778123
			-0.524867 -0.353311 -0.774394
			-0.482596 -0.454321 -0.748794
			-0.493725 -0.460160 -0.737894
			-0.475815 -0.460785 -0.749185
			-0.599949 -0.432618 -0.672980
			 0.699416 -0.044263 -0.713343
			 0.596197 -0.111354 -0.795078
			 0.414618 -0.138079 -0.899459
			-0.745155 -0.400452 -0.533275
			-0.496577 -0.501933 -0.708148
			-0.612510 -0.494850 -0.616405
			-0.313660 -0.393857 -0.863999
			-0.398665 -0.397298 -0.826571
			 0.596843  0.041417 -0.801288
			 0.391861  0.200642 -0.897880
			 0.050764  0.092089 -0.994456
			 0.146708  0.104071 -0.983690
			 0.080754  0.081890 -0.993364
			-0.117572 -0.055920 -0.991489
			-0.230949 -0.078946 -0.969758
			-0.206008 -0.103904 -0.973018
			-0.363916 -0.727944 -0.581087
			-0.419596 -0.618293 -0.664570
			 0.380028 -0.917167 -0.119931
			 0.474958 -0.850075 -0.227568
			 0.189353 -0.971351 -0.143609
			-0.111657 -0.956113 -0.270888
			 0.063704 -0.978634 -0.195494
			-0.311348 -0.813584 -0.491063
			 0.699753 -0.689117 -0.188318
			 0.697322 -0.614734 -0.368569
			 0.547888 -0.502832 -0.668565
			 0.707833 -0.382228 -0.594032
			 0.763505 -0.480332 -0.431673
			 0.609552 -0.091818 -0.787411
			 0.731620 -0.097986 -0.674634
			 0.686845 -0.024472 -0.726392
			 0.752256  0.029879 -0.658193
			 0.669423 -0.224832 -0.708042
			 0.639408 -0.181574 -0.747120
			-0.650518 -0.261072 -0.713210
			-0.685974 -0.514228 -0.514790
			-0.705187 -0.405650 -0.581515
			-0.631652 -0.320937 -0.705702
			-0.542455 -0.512519 -0.665632
			-0.475985 -0.598953 -0.643967
			-0.469293 -0.598053 -0.649690
			-0.445296 -0.617417 -0.648465
			-0.529369 -0.693571 -0.488597
			-0.780999 -0.295656 -0.550116
			-0.712454 -0.353757 -0.606024
			 0.770154  0.126367 -0.625215
			 0.784726  0.322963 -0.529055
			-0.875250 -0.187146 -0.445998
			-0.701146 -0.402167 -0.588775
			-0.892992 -0.186166 -0.409766
			-0.919058 -0.158238 -0.360961
			-0.760810 -0.234245 -0.605226
			-0.574865 -0.349789 -0.739715
			-0.324657 -0.164341 -0.931445
			-0.452357 -0.152023 -0.878784
			 0.696627  0.227474 -0.680416
			 0.320471  0.288178 -0.902359
			 0.612309  0.385256 -0.690403
			 0.260448  0.167836 -0.950788
			-0.004982  0.076335 -0.997070
			-0.307169  0.021506 -0.951412
			-0.193079 -0.013610 -0.981089
			 0.195349  0.015849 -0.980606
			 0.679330 -0.721714 -0.132817
			 0.573695 -0.818962  0.013248
			 0.309891 -0.950515  0.022092
			 0.685746 -0.716313 -0.129026
			 0.053806 -0.997873 -0.036795
			-0.161584 -0.980631 -0.110699
			-0.279354 -0.940498 -0.193456
			-0.423069 -0.762924 -0.488835
			 0.833183 -0.540679 -0.116075
			 0.792155 -0.607652 -0.057004
			 0.836450 -0.519173 -0.175530
			 0.863217 -0.453643 -0.221502
			 0.887240 -0.351596 -0.298639
			 0.864685 -0.214406 -0.454258
			 0.841988 -0.162399 -0.514473
			 0.934712  0.023975 -0.354596
			 0.934591 -0.081074 -0.346361
			 0.796694  0.133649 -0.589421
			 0.880600  0.151642 -0.448942
			-0.783967 -0.287209 -0.550370
			-0.871324 -0.295462 -0.391786
			-0.778605 -0.507498 -0.369080
			-0.616037 -0.680973 -0.395946
			-0.697953 -0.682882 -0.215718
			-0.843047 -0.405655 -0.353152
			-0.425696 -0.866042 -0.262209
			-0.574094 -0.787349 -0.224717
			-0.612687 -0.730261 -0.302215
			-0.827269 -0.271626 -0.491777
			-0.923632 -0.250718 -0.289903
			-0.924898 -0.233144 -0.300346
			-0.918168 -0.197279 -0.343582
			 0.819542  0.270400 -0.505208
			 0.759351  0.426849 -0.491108
			 0.806568  0.463781 -0.366545
			 0.776944  0.568707 -0.270056
			 0.824515  0.425156 -0.373387
			 0.742534  0.588128 -0.320544
			-0.981078 -0.105252 -0.162503
			-0.940755 -0.142729 -0.307585
			-0.950003 -0.132244 -0.282854
			-0.963004 -0.066920 -0.261045
			-0.969827 -0.082738 -0.229327
			-0.880544 -0.057536 -0.470459
			-0.922182 -0.071647 -0.380063
			-0.695789 -0.090713 -0.712495
			-0.182769  0.005053 -0.983143
			-0.538997 -0.037288 -0.841482
			 0.511102  0.322340 -0.796789
			 0.708591  0.465554 -0.530243
			 0.295273  0.077733 -0.952245
			 0.510939  0.147718 -0.846830
			-0.063371 -0.007602 -0.997961
			 0.775017  0.025649 -0.631420
			-0.249250 -0.068052 -0.966045
			 0.019243 -0.106834 -0.994091
			 0.388112 -0.101801 -0.915973
			 0.472912 -0.052684 -0.879533
			 0.589067  0.026217 -0.807659
			 0.469702  0.105931 -0.876447
			 0.727379 -0.681326  0.081944
			 0.442213 -0.888402  0.123246
			 0.186957 -0.968629  0.163721
			-0.008673 -0.937850  0.346933
			-0.223618 -0.971676  0.076426
			-0.378104 -0.925751  0.004713
			 0.893951 -0.442936 -0.068261
			 0.879237 -0.461177  0.119403
			 0.934985 -0.352950 -0.035052
			 0.954643 -0.239484 -0.176932
			 0.952346 -0.166351 -0.255663
			 0.990590 -0.099654 -0.093812
			 0.995138  0.016489 -0.097102
			 0.958696  0.052923 -0.279464
			 0.813242  0.320655 -0.485611
			 0.962142  0.132564 -0.238138
			 0.865306  0.298399 -0.402744
			-0.882679 -0.460338 -0.094687
			-0.947716 -0.293487 -0.125300
			-0.825910 -0.522224 -0.212495
			-0.608493 -0.790337  0.071447
			-0.742166 -0.669420  0.032652
			-0.961637 -0.237111 -0.137962
			-0.960658 -0.254375 -0.111492
			-0.960665 -0.242910 -0.134605
			-0.973251 -0.157166 -0.167574
			 0.817859  0.430625 -0.381665
			 0.883542  0.407977 -0.230019
			 0.911335  0.284547 -0.297493
			 0.853202  0.284005 -0.437478
			 0.740134  0.324867 -0.588781
			 0.748103  0.637941 -0.182683
			 0.761860  0.600970 -0.241673
			-0.989565 -0.142736  0.019707
			-0.996190 -0.038126  0.078433
			-0.995207 -0.061819 -0.075774
			-0.991957 -0.120609 -0.038404
			-0.990962 -0.129953 -0.033256
			-0.960065 -0.140630 -0.241863
			-0.939645 -0.111750 -0.323387
			-0.833610 -0.020061 -0.551989
			-0.772259 -0.199972 -0.603015
			-0.780733 -0.074844 -0.620367
			-0.920580 -0.110069 -0.374723
			-0.890756 -0.181041 -0.416867
			-0.137493 -0.022654 -0.990244
			 0.942913  0.009337 -0.332909
			-0.424590 -0.065494 -0.903014
			-0.615106 -0.068567 -0.785457
			 0.704994  0.137486 -0.695759
			 0.251811 -0.083606 -0.964158
			-0.152104 -0.137965 -0.978688
			-0.317003 -0.166321 -0.933727
			-0.139209 -0.156192 -0.977868
			 0.091104 -0.216871 -0.971940
			 0.639015 -0.058414 -0.766973
			 0.514259 -0.160532 -0.842476
			 0.794765  0.026039 -0.606359
			 0.698776 -0.675662  0.234932
			 0.824797 -0.528782  0.200250
			 0.346344 -0.883848  0.314420
			 0.533248 -0.793246  0.293952
			 0.289895 -0.865931  0.407583
			-0.224303 -0.848934  0.478539
			-0.295346 -0.881386  0.368686
			 0.014346 -0.819206  0.573320
			-0.372209 -0.884879  0.280087
			-0.474008 -0.868615  0.144308
			 0.872344 -0.470246  0.133737
			 0.922563 -0.352232  0.157513
			 0.970968 -0.234147 -0.048958
			 0.965979 -0.235766  0.106292
			 0.984248 -0.131150  0.118557
			 0.991810 -0.056309  0.114642
			 0.988907  0.148487  0.003765
			 0.791919  0.499061 -0.351856
			 0.762982  0.492695 -0.418461
			 0.918561  0.314735 -0.239139
			 0.965721  0.212003 -0.149792
			-0.776591 -0.583580  0.237361
			-0.876338 -0.459834  0.143471
			-0.959588 -0.279968  0.028452
			-0.929243 -0.367833  0.034731
			-0.646694 -0.726644  0.231896
			-0.548816 -0.766479  0.333633
			-0.648534 -0.697102  0.305700
			 0.937131 -0.347210 -0.035077
			-0.974358 -0.210826 -0.078600
			-0.776462 -0.616882 -0.128697
			 0.994112 -0.107027 -0.016928
			 0.692633  0.638999 -0.334574
			 0.874652  0.424694 -0.233707
			 0.813886  0.493437 -0.306774
			 0.868627  0.366755 -0.333134
			 0.965969  0.132525 -0.222129
			 0.911580  0.263847 -0.315289
			 0.917298  0.072720 -0.391506
			 0.825310  0.203030 -0.526918
			 0.733270  0.636026 -0.240387
			 0.635276  0.728126 -0.257403
			-0.982921 -0.051007  0.176819
			-0.991033 -0.129862  0.031461
			-0.991946 -0.085397  0.093546
			-0.986842 -0.101126  0.126163
			-0.981401 -0.130757  0.140549
			-0.979673 -0.065036  0.189767
			-0.994177 -0.048548  0.096207
			-0.984832 -0.130180 -0.114716
			-0.925186 -0.129916 -0.356585
			-0.954050 -0.144940 -0.262262
			-0.578643 -0.155595 -0.800601
			-0.850673 -0.209349 -0.482211
			-0.743304 -0.210056 -0.635119
			-0.630415 -0.230893 -0.741124
			-0.934262 -0.174350 -0.311057
			-0.930886 -0.185190 -0.314891
			-0.119810 -0.175649 -0.977135
			-0.394703 -0.332651 -0.856477
			-0.049857 -0.343328 -0.937891
			 0.397697 -0.216617 -0.891579
			 0.727623 -0.125567 -0.674386
			 0.788344 -0.083142 -0.609591
			 0.645067 -0.139723 -0.751243
			 0.853466 -0.061087 -0.517555
			 0.660149 -0.645917  0.383398
			 0.787494 -0.510824  0.344836
			 0.412469 -0.775253  0.478385
			-0.191552 -0.820919  0.537958
			-0.352243 -0.828309  0.435695
			-0.233087 -0.756609  0.610912
			-0.378261 -0.735790  0.561722
			-0.031138 -0.794694  0.606211
			 0.330955 -0.747656  0.575742
			 0.934336 -0.349961  0.067403
			 0.840822 -0.463662  0.279350
			 0.889377 -0.456170  0.030301
			 0.962180 -0.170817  0.212205
			 0.998135  0.061051 -0.000036
			 0.985552 -0.118124 -0.121386
			 0.980587 -0.188472  0.054115
			 0.950419  0.309853 -0.026383
			 0.991129  0.128545  0.033748
			 0.927082  0.363225 -0.092665
			 0.890088  0.408417 -0.202335
			 0.805494  0.547316 -0.227211
			 0.915607  0.359146 -0.180770
			-0.730115 -0.551365  0.403645
			-0.859678 -0.457962  0.226328
			-0.884466 -0.409993  0.222768
			-0.979781 -0.199675 -0.012593
			-0.601210 -0.675535  0.426848
			-0.597238 -0.614192  0.515824
			 0.668565  0.684466 -0.290736
			 0.657119  0.670101 -0.345196
			 0.788603  0.487340 -0.374974
			 0.801122  0.473889 -0.365560
			 0.924728  0.335362 -0.180031
			 0.986231  0.137771 -0.091471
			 0.977003  0.020343 -0.212254
			 0.915794 -0.054008 -0.398001
			-0.974983 -0.127952  0.181758
			-0.902289 -0.136116  0.409080
			-0.902722 -0.128889  0.410464
			-0.968313 -0.022776  0.248699
			-0.968739 -0.071614  0.237521
			-0.969093 -0.211659  0.126726
			-0.961136 -0.077024  0.265113
			-0.956052 -0.092028  0.278381
			-0.964821 -0.015274  0.262464
			-0.921163 -0.017510  0.388782
			-0.994919 -0.098338 -0.021563
			-0.992413 -0.044167  0.114743
			-0.983775 -0.111264 -0.140741
			-0.885603 -0.151238 -0.439130
			-0.788489 -0.201775 -0.581010
			-0.921462 -0.153506 -0.356852
			-0.929060 -0.144048 -0.340732
			-0.696320 -0.241946 -0.675722
			-0.975609 -0.106347 -0.192033
			-0.119590 -0.376202 -0.918788
			-0.275103 -0.392850 -0.877489
			-0.513234 -0.323101 -0.795108
			-0.707594 -0.287307 -0.645574
			 0.143262 -0.304003 -0.941838
			 0.692985 -0.109785 -0.712544
			 0.361422 -0.252601 -0.897534
			 0.547233 -0.192203 -0.814613
			 0.856215 -0.088462 -0.508989
			 0.852680 -0.078473 -0.516506
			 0.825061 -0.090224 -0.557793
			 0.605051 -0.616367  0.503989
			 0.649030 -0.614649  0.448294
			-0.471451 -0.640189  0.606541
			-0.295417 -0.804686  0.514984
			-0.069656 -0.887080  0.456331
			 0.318107 -0.866118  0.385548
			 0.177139 -0.885691  0.429154
			 0.464444 -0.790199  0.399848
			 0.925460 -0.280683  0.254441
			 0.686214 -0.700819  0.194842
			 0.930548 -0.315623  0.185641
			 0.834028 -0.542067  0.102766
			 0.965899 -0.218159  0.139446
			 0.960535 -0.032382 -0.276266
			 0.977091  0.171423 -0.126122
			 0.871580  0.006450 -0.490211
			 0.942965 -0.239814 -0.230883
			 0.917151 -0.190615 -0.350000
			 0.945140 -0.326614  0.005760
			 0.936271 -0.266595 -0.228746
			 0.911451  0.402074 -0.087139
			 0.820812  0.554390 -0.137547
			-0.727267 -0.511310  0.457869
			-0.631679 -0.525668  0.569784
			-0.806985 -0.465729  0.363142
			-0.882791 -0.332770  0.331578
			 0.704477  0.659142 -0.263140
			 0.649372  0.676688 -0.347000
			 0.736303  0.606967 -0.299081
			 0.878620  0.464283 -0.111660
			 0.819661  0.542478 -0.184046
			 0.954807  0.289775 -0.066136
			 0.993781  0.111141 -0.006887
			 0.991791 -0.032180 -0.123757
			 0.956991 -0.062134 -0.283386
			 0.890542 -0.080137 -0.447786
			-0.883728 -0.246301  0.397946
			-0.771085 -0.229553  0.593914
			-0.807816 -0.261631  0.528188
			-0.841163 -0.354744  0.408168
			-0.905638 -0.327233  0.269701
			-0.964671 -0.076888  0.251989
			-0.983681 -0.062239  0.168813
			-0.957491 -0.031328  0.286758
			-0.910649 -0.024220  0.412471
			-0.935811  0.001475  0.352498
			-0.918009 -0.001051  0.396559
			-0.877990  0.042172  0.476818
			-0.832771  0.067262  0.549517
			-0.851191  0.044215  0.522991
			-0.986780 -0.073290 -0.144545
			-0.990447 -0.046267  0.129903
			-0.897673 -0.144219 -0.416395
			-0.924935 -0.121788 -0.360087
			-0.941341 -0.110032 -0.319014
			-0.827814 -0.169745 -0.534705
			-0.709742 -0.194511 -0.677076
			-0.970398 -0.095117 -0.221993
			-0.576514 -0.249607 -0.778028
			 0.188987 -0.315293 -0.929986
			-0.032129 -0.383419 -0.923016
			-0.282949 -0.344262 -0.895223
			 0.842331 -0.107816 -0.528066
			 0.823783 -0.084465 -0.560577
			 0.724281 -0.131069 -0.676933
			 0.312134 -0.315133 -0.896250
			 0.567809 -0.258320 -0.781578
			 0.669254 -0.238943 -0.703566
			 0.977270 -0.033194 -0.209384
			 0.971870 -0.032984 -0.233198
			 0.957429 -0.042333 -0.285547
			 0.868680 -0.067321 -0.490778
			-0.656505 -0.552038  0.514057
			-0.493603 -0.759179  0.424268
			-0.388241 -0.859845  0.331565
			-0.322628 -0.903868  0.280953
			 0.032958 -0.918689  0.393605
			 0.161869 -0.968805  0.187660
			 0.358316 -0.921140  0.152025
			 0.203420 -0.916148  0.345389
			 0.001322 -0.963053  0.269310
			 0.659533 -0.749340 -0.059198
			 0.825460 -0.547469 -0.137454
			 0.903993  0.102250 -0.415141
			 0.927896  0.173190 -0.330173
			 0.904300  0.367436 -0.217330
			 0.860770  0.226548 -0.455796
			 0.739554  0.330199 -0.586540
			 0.867613 -0.089375 -0.489143
			 0.852822 -0.235563 -0.466053
			 0.779547  0.121545 -0.614438
			 0.850639 -0.311798 -0.423315
			 0.864776 -0.402911 -0.299706
			 0.843934 -0.378259 -0.380388
			-0.727864 -0.398363  0.558141
			-0.764961 -0.360656  0.533631
			 0.746026  0.568205 -0.347259
			 0.701171  0.651765 -0.289070
			 0.788397  0.580272 -0.204244
			 0.905280  0.424534 -0.015465
			 0.977076  0.212589  0.011370
			 0.994341  0.075619 -0.074615
			 0.998387 -0.018843  0.053549
			 0.997558 -0.025461  0.065042
			 0.977738 -0.066809 -0.198912
			 0.974197 -0.103736 -0.200446
			 0.969666 -0.103091 -0.221631
			 0.932035 -0.090571 -0.350867
			-0.834124 -0.477309  0.276430
			-0.951180 -0.288191  0.110467
			-0.905391 -0.397364  0.149561
			-0.986687 -0.138046  0.085974
			-0.972912  0.025747  0.229735
			-0.871425  0.072678  0.485115
			-0.835534  0.060493  0.546098
			-0.967534 -0.023519  0.251646
			-0.842421  0.065627  0.534809
			-0.947376  0.020706  0.319452
			-0.667442  0.146531  0.730102
			-0.992964 -0.051366 -0.106699
			-0.981581 -0.002752  0.191029
			-0.994488 -0.014753  0.103808
			-0.801466 -0.149264 -0.579113
			-0.944320 -0.116939 -0.307546
			-0.964502 -0.103882 -0.242784
			-0.949799 -0.112608 -0.291891
			-0.899966 -0.133049 -0.415162
			-0.781926 -0.186208 -0.594910
			-0.974369 -0.091662 -0.205433
			-0.610914 -0.234730 -0.756099
			-0.663246 -0.207860 -0.718957
			-0.996885 -0.056056 -0.055487
			-0.332603 -0.285759 -0.898731
			 0.027314 -0.353447 -0.935056
			-0.000500 -0.300369 -0.953823
			 0.914519 -0.069884 -0.398462
			 0.830057 -0.124360 -0.543636
			 0.899864 -0.131916 -0.415744
			 0.872162 -0.064426 -0.484957
			 0.814349 -0.170950 -0.554628
			 0.688251 -0.299986 -0.660544
			 0.797299 -0.253095 -0.547957
			 0.736927 -0.189066 -0.648994
			 0.301715 -0.284179 -0.910060
			 0.451891 -0.348504 -0.821182
			 0.296721 -0.267961 -0.916599
			-0.685433 -0.673353  0.277089
			-0.516354 -0.814295  0.265147
			-0.272578 -0.932722  0.236075
			-0.049759 -0.978061  0.202291
			 0.133756 -0.989610  0.052733
			 0.350376 -0.936511 -0.013553
			-0.352916 -0.900405  0.254401
			 0.527520 -0.830016 -0.181097
			 0.732342 -0.605716 -0.311101
			 0.710679  0.447772 -0.542619
			 0.787252  0.133522 -0.602002
			 0.606198  0.573070 -0.551467
			 0.699046  0.512901 -0.498265
			 0.614085  0.567579 -0.548411
			 0.797531  0.315798 -0.514019
			 0.814216 -0.258798 -0.519689
			 0.900753  0.122224 -0.416780
			 0.960133 -0.030672 -0.277856
			 0.856797 -0.285113 -0.429662
			 0.926962 -0.145421 -0.345825
			 0.809149 -0.403418 -0.427237
			 0.781518 -0.413945 -0.466774
			 0.782587 -0.458424 -0.421194
			 0.832932 -0.366045 -0.415011
			 0.771075 -0.426100 -0.473162
			 0.713243  0.544370 -0.441527
			 0.840531  0.441746 -0.313638
			 0.863461  0.475183 -0.169224
			 0.949309  0.306193 -0.071124
			 0.973514 -0.007237 -0.228511
			 0.956967  0.217426 -0.192199
			 0.977661  0.000892  0.210187
			 0.973535 -0.092180 -0.209123
			 0.960776 -0.077141 -0.266381
			 0.973516 -0.077867 -0.214948
			 0.994630 -0.065458 -0.080160
			 0.980556 -0.076886 -0.180549
			 0.968122 -0.086396 -0.235108
			 0.947835 -0.098902 -0.303031
			-0.854340 -0.496220  0.154491
			-0.714937 -0.676390  0.177092
			-0.903742 -0.414393  0.107371
			-0.944161 -0.319694  0.079717
			-0.974062 -0.053387  0.219895
			-0.877264  0.070118  0.474859
			-0.948990  0.051092  0.311140
			-0.863407  0.139789  0.484756
			-0.722996  0.161315  0.671754
			-0.755904  0.125421  0.642557
			-0.841067  0.104949  0.530652
			-0.982009  0.005917  0.188741
			-0.978986  0.009722  0.203695
			-0.902312  0.072110  0.425009
			-0.629160  0.166466  0.759241
			-0.552970  0.223640  0.802627
			-0.492267  0.180198  0.851588
			-0.512241  0.165163  0.842811
			-0.583282  0.156777  0.796996
			-0.418003  0.247188  0.874169
			-0.988016 -0.054512 -0.144403
			-0.987881 -0.072690 -0.137141
			-0.995116 -0.059036 -0.079119
			-0.998537 -0.012927 -0.052501
			-0.994521  0.003406  0.104486
			-0.989179 -0.040598 -0.140982
			-0.980429 -0.061766 -0.186932
			-0.925519 -0.121348 -0.358733
			-0.542131 -0.210071 -0.813612
			-0.857900 -0.171749 -0.484261
			-0.749743 -0.187999 -0.634462
			-0.678360 -0.214869 -0.702609
			-0.403421 -0.275050 -0.872697
			-0.556869 -0.231563 -0.797669
			-0.432387 -0.271062 -0.859981
			-0.475127 -0.278499 -0.834681
			-0.996321 -0.072093 -0.046337
			 0.031360 -0.320570 -0.946706
			 0.871348 -0.141254 -0.469893
			 0.901388 -0.143665 -0.408486
			 0.885041 -0.350999 -0.305781
			 0.575285 -0.457500 -0.678042
			 0.745322 -0.346133 -0.569813
			 0.778012 -0.435922 -0.452404
			 0.891962 -0.304489 -0.334201
			 0.272413 -0.405200 -0.872700
			-0.540120 -0.793846  0.279426
			-0.304192 -0.891657  0.335284
			-0.154549 -0.928491  0.337667
			 0.053683 -0.987904  0.145479
			-0.075439 -0.949198  0.305503
			 0.079626 -0.978074  0.192434
			 0.278037 -0.954090  0.111391
			 0.408107 -0.906783 -0.105799
			 0.604914 -0.779332 -0.163467
			 0.674758 -0.680330 -0.286101
			 0.599341 -0.788528 -0.137891
			 0.767475 -0.612477 -0.189352
			 0.802503  0.464975 -0.373881
			 0.568660  0.607279 -0.554832
			 0.685834  0.451484 -0.570783
			 0.684056  0.554680 -0.473707
			 0.875398  0.320188 -0.362157
			 0.972600  0.181849 -0.144847
			 0.956928 -0.197498 -0.212797
			 0.998420  0.006706 -0.055793
			 0.876617 -0.367392 -0.310750
			 0.819288 -0.440546 -0.366995
			 0.868447 -0.451916 -0.203893
			 0.814089  0.384322 -0.435380
			 0.808571  0.275867 -0.519721
			 0.885479  0.269691 -0.378410
			 0.713050  0.442890 -0.543515
			 0.925126  0.234749 -0.298388
			 0.938211  0.011354 -0.345877
			 0.984651 -0.040588 -0.169750
			 0.934394 -0.032607 -0.354747
			 0.910722  0.010477 -0.412887
			 0.970731 -0.003565 -0.240145
			 0.996353 -0.036522 -0.077115
			 0.995912 -0.008911 -0.089885
			 0.975761  0.010840  0.218568
			 0.999076 -0.008262  0.042176
			 0.995649 -0.015239 -0.091924
			 0.991694 -0.050873 -0.118129
			 0.994868 -0.053320 -0.085991
			-0.747165 -0.578095  0.327949
			-0.862795 -0.477756  0.165329
			-0.605200 -0.750978  0.264131
			-0.933386 -0.262012  0.245234
			-0.896111 -0.307946  0.319615
			-0.909779 -0.016589  0.414762
			-0.870805  0.112751  0.478526
			-0.805655 -0.028863  0.591681
			-0.705755  0.085655  0.703259
			-0.646932  0.161741  0.745197
			-0.633761  0.219736  0.741663
			-0.581724  0.214649  0.784553
			-0.651623  0.156243  0.742278
			-0.774620  0.140660  0.616586
			-0.958570  0.029170  0.283361
			-0.808376  0.145375  0.570434
			-0.806859  0.133114  0.575551
			-0.718219  0.137771  0.682042
			-0.859077  0.113539  0.499096
			-0.497860  0.229107  0.836448
			-0.463548  0.179608  0.867678
			-0.294595  0.203639  0.933673
			-0.513526  0.185242  0.837840
			-0.440749  0.253758  0.861015
			-0.439692  0.265707  0.857946
			-0.574726  0.253774  0.778003
			-0.425363  0.259425  0.867044
			-0.999416 -0.033355  0.007458
			-0.975041  0.032926  0.219570
			-0.999818 -0.016434  0.009710
			-0.974729 -0.070927 -0.211831
			-0.994678 -0.041871 -0.094141
			-0.909017 -0.123772 -0.397956
			-0.081886 -0.293917 -0.952317
			-0.257743 -0.285147 -0.923179
			-0.442476 -0.222361 -0.868775
			-0.600754 -0.178444 -0.779264
			-0.829507 -0.166363 -0.533143
			-0.662711 -0.197871 -0.722261
			-0.667071 -0.192198 -0.719775
			-0.600191 -0.199148 -0.774668
			-0.191249 -0.337999 -0.921510
			-0.063180 -0.353175 -0.933422
			-0.195083 -0.345324 -0.917984
			 0.945031 -0.121162 -0.303706
			 0.881640 -0.175218 -0.438188
			 0.957376 -0.079565 -0.277668
			 0.912612 -0.121494 -0.390358
			 0.830833 -0.173393 -0.528820
			 0.865719 -0.185065 -0.465060
			 0.859904 -0.433812 -0.269022
			 0.928929 -0.352540 -0.113168
			 0.646321 -0.535643 -0.543467
			 0.546039 -0.408540 -0.731394
			 0.379476 -0.405495 -0.831608
			 0.682667 -0.403667 -0.609112
			 0.161494 -0.411692 -0.896900
			-0.401250 -0.857289  0.322575
			-0.064660 -0.887147  0.456935
			-0.296561 -0.869664  0.394633
			 0.170080 -0.882666  0.438147
			 0.068349 -0.869775  0.488692
			 0.421302 -0.816849  0.394034
			 0.469213 -0.881941  0.044949
			 0.651613 -0.739681 -0.168141
			 0.657577 -0.753352 -0.007303
			 0.605943 -0.789003  0.101523
			 0.735868 -0.656889  0.164302
			 0.835207 -0.549363  0.025080
			 0.938652  0.281672 -0.198983
			 0.819986  0.502977 -0.273199
			 0.904906  0.343930 -0.250712
			 0.926373  0.341973 -0.157758
			 0.660712  0.512637 -0.548327
			 0.764422  0.331809 -0.552776
			 0.841530  0.161158 -0.515612
			 0.689188  0.568171 -0.449669
			 0.834031  0.279866 -0.475465
			 0.757765  0.431230 -0.489727
			 0.960309  0.138335  0.242219
			 0.974274  0.223663  0.027654
			 0.936094  0.254945  0.242346
			 0.952877 -0.290020 -0.088956
			 0.989144 -0.136877  0.053465
			 0.986326 -0.004752  0.164736
			 0.932247 -0.358937  0.045610
			 0.874544  0.196163 -0.443502
			 0.983562 -0.021860 -0.179242
			 0.930407  0.084587 -0.356634
			 0.966062  0.042997 -0.254706
			 0.994486  0.042444 -0.095900
			 0.991252 -0.011773 -0.131456
			 0.994664  0.101660  0.017563
			 0.994981  0.094992  0.031459
			 0.997504  0.051470  0.048340
			 0.988934  0.094384  0.114461
			 0.995797  0.044277  0.080175
			 0.995942  0.028705  0.085294
			 0.997614 -0.014555  0.067479
			 0.999548  0.018187  0.023959
			 0.990252 -0.071261 -0.119676
			 0.997302 -0.044354 -0.058491
			 0.998004 -0.023964  0.058431
			-0.569083 -0.739650  0.359252
			-0.565434 -0.687677  0.455396
			-0.789112 -0.371094  0.489481
			-0.649741 -0.453600  0.609986
			-0.843095 -0.445091  0.301803
			-0.886763 -0.121816  0.445883
			-0.834616 -0.248611  0.491537
			-0.740117 -0.111954  0.663093
			-0.595707  0.095223  0.797538
			-0.370053  0.163076  0.914586
			-0.490242  0.195941  0.849276
			-0.467128  0.164673  0.868720
			-0.554579  0.219072  0.802776
			-0.475167  0.230008  0.849302
			-0.550480  0.198493  0.810908
			-0.666854  0.191055  0.720281
			-0.631327  0.180273  0.754273
			-0.727051  0.160718  0.667507
			-0.647613  0.179373  0.740556
			-0.580076  0.206298  0.788005
			-0.648102  0.174535  0.741284
			-0.887706  0.102726  0.448804
			-0.804398  0.142515  0.576743
			-0.220320  0.191837  0.956377
			-0.420783  0.202716  0.884222
			-0.343690  0.182247  0.921229
			-0.122096  0.252365  0.959898
			-0.252365  0.201588  0.946401
			-0.356139  0.217266  0.908824
			-0.953119  0.058989  0.296789
			-0.997699 -0.015680  0.065965
			-0.957739 -0.089317 -0.273420
			-0.992080 -0.051543 -0.114549
			-0.792690 -0.185463 -0.580729
			-0.780740 -0.173303 -0.600343
			-0.857545 -0.144941 -0.493568
			-0.914648 -0.123912 -0.384791
			-0.000083 -0.353907 -0.935281
			 0.092203 -0.373829 -0.922903
			 0.166607 -0.327531 -0.930035
			 0.138899 -0.309226 -0.940790
			-0.154799 -0.272106 -0.949735
			-0.575997 -0.264579 -0.773450
			-0.459148 -0.242588 -0.854596
			-0.627266 -0.232627 -0.743251
			 0.350035 -0.401950 -0.846116
			 0.960828 -0.154165 -0.230311
			 0.869539 -0.159618 -0.467359
			 0.937576 -0.106648 -0.331026
			 0.880578 -0.148797 -0.449936
			 0.788076 -0.179393 -0.588858
			 0.817241 -0.199271 -0.540748
			 0.943230 -0.129910 -0.305679
			 0.958382 -0.227324 -0.172704
			 0.793744 -0.350915 -0.496819
			 0.456700 -0.400955 -0.794141
			-0.548219 -0.696251  0.463347
			 0.134789 -0.691184  0.709998
			 0.010407 -0.725527  0.688115
			-0.196165 -0.720357  0.665285
			-0.430344 -0.679986  0.593652
			 0.252814 -0.703412  0.664301
			 0.172251 -0.711598  0.681144
			 0.333793 -0.666100  0.667003
			 0.423316 -0.792936  0.438242
			 0.538233 -0.719402  0.439052
			 0.613058 -0.634615  0.470557
			 0.720437 -0.571898  0.392305
			 0.754759 -0.625202  0.198647
			 0.837711 -0.501832  0.215418
			 0.962032  0.257923 -0.089278
			 0.807823  0.577608 -0.117436
			 0.898370  0.439233  0.002492
			 0.956588  0.291425  0.003237
			 0.710557  0.595932 -0.374130
			 0.858226  0.342439 -0.382339
			 0.947562  0.199496 -0.249653
			 0.836414  0.458312 -0.300602
			 0.771934  0.519327 -0.366630
			 0.924998  0.031301  0.378682
			 0.827742  0.216280  0.517751
			 0.880211  0.086087  0.466710
			 0.934201  0.228849  0.273672
			 0.746877  0.285029  0.600777
			 0.967780 -0.223899  0.115204
			 0.993477 -0.064457  0.094065
			 0.987577 -0.001939  0.157122
			 0.916205 -0.338622  0.214252
			 0.977340  0.119803 -0.174507
			 0.992568  0.120794 -0.014781
			 0.974366  0.157448  0.160689
			 0.998613  0.028616  0.044198
			 0.998534  0.032360  0.043397
			 0.990996  0.086848  0.101901
			 0.966913  0.120055  0.225093
			 0.971528  0.018031  0.236238
			 0.977096  0.004910  0.212742
			 0.986575  0.067145  0.148866
			 0.993996  0.028676  0.105589
			 0.997414 -0.055129 -0.046108
			 0.965435  0.012706  0.260336
			 0.998226 -0.014227  0.057819
			 0.956138  0.009387  0.292767
			 0.999276 -0.028418  0.025300
			 0.997494 -0.061244 -0.035434
			 0.994868 -0.056198 -0.084139
			 0.996161 -0.035264 -0.080128
			 0.983973 -0.084883 -0.156822
			 0.991274 -0.054339 -0.120096
			-0.703799 -0.211103  0.678309
			-0.502725 -0.510118  0.697887
			-0.534254 -0.364861  0.762528
			-0.580725 -0.174757  0.795122
			-0.643182 -0.024998  0.765305
			-0.504651  0.097049  0.857851
			-0.342865  0.201933  0.917424
			-0.377739  0.181507  0.907948
			-0.185092  0.137490  0.973056
			-0.154750  0.218647  0.963455
			-0.383888  0.212422  0.898614
			-0.351346  0.309450  0.883627