<?xml version="1.0"?>
<VTKFile type="PolyData" version="0.1" byte_order="LittleEndian" compressor="vtkZLibDataCompressor">
	<PolyData>
		<Piece NumberOfPoints="1288" NumberOfVerts="0" NumberOfLines="0" NumberOfStrips="0" NumberOfPolys="2572">
		<PointData Normals="Normals">
		<DataArray type="Float32" Name="Normals" NumberOfComponents="3" format="ascii">
			 0.328233 -0.898599  0.291174
			 0.436351 -0.891270  0.123431
			 0.554722 -0.802244  0.220654
			 0.558119 -0.771192  0.306212
			 0.167877 -0.982383 -0.082099
			 0.097824 -0.895796  0.433566
			 0.115645 -0.978249  0.172208
			 0.259499 -0.856206  0.446734
			 0.689045 -0.723658  0.039198
			 0.556008 -0.827781 -0.075056
			 0.361101 -0.927564 -0.096079
			 0.778332 -0.614282  0.129833
			 0.807329 -0.556492  0.196307
			 0.453516 -0.762019  0.462222
			 0.726892 -0.589730  0.351919
			 0.131260 -0.956861 -0.259207
			-0.195298 -0.971772 -0.132355
			-0.162831 -0.948953 -0.270136
			-0.258026 -0.923555  0.283669
			 0.118506 -0.764491  0.633648
			-0.107831 -0.825076  0.554637
			 0.334460 -0.713257  0.615955
			 0.676982 -0.703336 -0.216827
			 0.801684 -0.581102 -0.140085
			 0.869848 -0.492912  0.020030
			 0.393259 -0.899948 -0.188259
			 0.412424 -0.849828 -0.328174
			 0.910771 -0.399280  0.105224
			 0.900498 -0.428260  0.075478
			 0.851184 -0.464140  0.245072
			 0.560909 -0.624774  0.543174
			 0.708373 -0.489505  0.508520
			 0.886234 -0.356171  0.296197
			 0.195876 -0.915101 -0.352453
			-0.165989 -0.926146 -0.338676
			-0.355400 -0.934378  0.025078
			-0.359552 -0.922297 -0.141741
			-0.582471 -0.789336 -0.194101
			-0.401845 -0.874282 -0.272309
			-0.338159 -0.807268  0.483701
			-0.537452 -0.752985  0.379682
			-0.444031 -0.867485  0.224292
			-0.301472 -0.769614  0.562858
			-0.072111 -0.804832  0.589106
			 0.140382 -0.733574  0.664953
			 0.460428 -0.599443  0.654732
			 0.407659 -0.600429  0.687967
			-0.455114 -0.720146  0.523700
			 0.689314 -0.641650 -0.336350
			 0.605139 -0.706294 -0.367364
			 0.702354 -0.587901 -0.401337
			 0.847777 -0.474729 -0.236444
			 0.910259 -0.412232 -0.038641
			 0.953901 -0.292519  0.067124
			 0.081928 -0.847912 -0.523768
			 0.131073 -0.820706 -0.556113
			 0.303854 -0.779208 -0.548186
			 0.949680 -0.278425  0.143484
			 0.964091 -0.260022  0.054004
			 0.536074 -0.439525  0.720723
			 0.678089 -0.361358  0.640012
			 0.846093 -0.304066  0.437801
			 0.963636 -0.210461  0.164659
			 0.937787 -0.158281  0.309034
			-0.195819 -0.900271 -0.388803
			-0.521250 -0.790803 -0.320826
			-0.419165 -0.850436 -0.317900
			-0.490838 -0.869772  0.050752
			-0.744741 -0.665617 -0.048117
			-0.668654 -0.698045 -0.256192
			-0.869946 -0.479136 -0.116718
			-0.829835 -0.534831 -0.159153
			-0.675771 -0.615877  0.405006
			-0.672227 -0.728463  0.132108
			-0.817973 -0.539687  0.199141
			-0.601957 -0.643840  0.472354
			-0.572578 -0.703028  0.421788
			-0.530366 -0.631123  0.566036
			-0.050663 -0.686685  0.725188
			 0.203721 -0.477085  0.854920
			 0.533573 -0.650969 -0.539944
			 0.431045 -0.637186 -0.638901
			 0.599555 -0.602188 -0.527165
			 0.779472 -0.479471 -0.403151
			 0.887385 -0.348013 -0.302382
			 0.940033 -0.309325 -0.143726
			 0.966244 -0.257539  0.006802
			 0.995584 -0.092164  0.017834
			 0.992941 -0.090471  0.076696
			 0.840519 -0.405357 -0.359462
			-0.459592 -0.774670 -0.434352
			-0.470309 -0.719009 -0.511699
			 0.079121 -0.832246 -0.548732
			 0.946845 -0.240667 -0.213459
			 0.356388 -0.727855 -0.585845
			 0.338027 -0.627518 -0.701398
			 0.163626 -0.757069 -0.632514
			 0.380452 -0.421362  0.823232
			 0.500584 -0.305090  0.810145
			 0.805151 -0.239494  0.542563
			 0.923713 -0.015215  0.382784
			 0.986735 -0.079629  0.141465
			 0.965617 -0.044013  0.256217
			-0.579094 -0.750608 -0.318178
			-0.696218 -0.677616 -0.236892
			-0.744814 -0.626759 -0.228964
			-0.852700 -0.520889  0.039715
			-0.925167 -0.379559  0.001035
			-0.957350 -0.286469 -0.037638
			-0.901563 -0.414060 -0.125452
			-0.760273 -0.546312  0.351465
			-0.884544 -0.436590  0.164230
			-0.926431 -0.370987  0.063979
			-0.758366 -0.481899  0.438925
			-0.729898 -0.373104  0.572750
			-0.476619 -0.431130  0.766134
			-0.636524 -0.342535  0.691019
			-0.189112 -0.399913  0.896831
			-0.106502 -0.378978  0.919257
			 0.244453 -0.584510 -0.773687
			 0.139975 -0.640489 -0.755104
			 0.491993 -0.562667 -0.664341
			 0.753536 -0.442481 -0.486204
			 0.982115 -0.121267 -0.144031
			 0.844375 -0.290459 -0.450183
			 0.923787 -0.138074 -0.357145
			 0.999114  0.012441  0.040214
			 0.999152  0.041100 -0.002322
			 0.997630  0.067408 -0.013792
			 0.993895  0.033091 -0.105255
			 0.642870 -0.625892 -0.441563
			-0.739750 -0.585468 -0.331658
			-0.718893 -0.592119 -0.364126
			-0.795901 -0.467281 -0.384954
			-0.680195 -0.508151 -0.528317
			-0.357830 -0.666555 -0.653959
			-0.103008 -0.805452 -0.583641
			 0.139447 -0.662347 -0.736105
			 0.169119 -0.345083  0.923210
			 0.309479 -0.149100  0.939144
			 0.617574 -0.238373  0.749520
			 0.398872 -0.205447  0.893696
			 0.813799 -0.160792  0.558459
			 0.973998  0.011163  0.226282
			 0.963909  0.138518  0.227357
			 0.724635 -0.130534  0.676657
			 0.838529  0.125308  0.530252
			 0.764660  0.003534  0.644424
			 0.949155  0.184632  0.254980
			 0.999911  0.013268  0.001021
			-0.861122 -0.460845 -0.214688
			-0.970661 -0.237545 -0.037264
			-0.918616 -0.362317  0.157704
			-0.998820 -0.047948 -0.007665
			-0.994410 -0.088290 -0.057916
			-0.980156 -0.196722  0.024368
			-0.937255 -0.321634 -0.134555
			-0.867844 -0.349458  0.353166
			-0.883390 -0.209378  0.419265
			-0.739272 -0.184356  0.647680
			-0.499118 -0.251099  0.829356
			-0.502907 -0.149733  0.851272
			-0.323376 -0.250059  0.912633
			 0.114797 -0.507044 -0.854241
			 0.418612 -0.437751 -0.795700
			 0.016192 -0.558978 -0.829024
			-0.184520 -0.508773 -0.840894
			 0.704210 -0.333815 -0.626622
			 0.981356 -0.015556 -0.191568
			 0.846789 -0.207830 -0.489648
			 0.864144 -0.078202 -0.497132
			 0.946862  0.067324 -0.314514
			 0.981539  0.179331  0.066498
			 0.995661  0.069526 -0.061844
			 0.971223  0.196316 -0.134857
			 0.941703  0.215326 -0.258514
			-0.873803 -0.389950 -0.290530
			-0.816285 -0.350742 -0.458975
			-0.634984 -0.442153 -0.633479
			-0.275313 -0.602247 -0.749334
			-0.083196 -0.498196 -0.863064
			 0.163905 -0.471938 -0.866262
			 0.030868 -0.138674  0.989857
			-0.102903 -0.301628  0.947856
			 0.215983 -0.108677  0.970330
			-0.044454  0.007052  0.998987
			 0.154143 -0.050041  0.986781
			 0.536052 -0.195568  0.821220
			 0.347604 -0.190843  0.918015
			 0.975360  0.104059  0.194535
			 0.990429  0.100613  0.094485
			 0.958151  0.283572  0.039156
			 0.973687  0.185280  0.132681
			 0.601824 -0.109019  0.791153
			 0.592743  0.125840  0.795500
			 0.573413  0.157014  0.804079
			 0.912420  0.154155  0.379112
			 0.824155  0.265666  0.500190
			 0.621804  0.199579  0.757316
			 0.485095 -0.022508  0.874172
			 0.916060  0.319067  0.242961
			 0.949261  0.308561  0.060776
			 0.972622  0.169274 -0.159224
			-0.956462 -0.268864 -0.113542
			-0.954293 -0.189700  0.230951
			-0.995852  0.079747  0.043799
			-0.988336 -0.128347 -0.081971
			-0.985857  0.043520  0.161838
			-0.989483 -0.005653  0.144538
			-0.998535 -0.038330  0.038187
			-0.998918 -0.031225  0.034462
			-0.985395 -0.027536  0.168045
			-0.909279 -0.014842  0.415922
			-0.691708 -0.068295  0.718941
			-0.807939 -0.006535  0.589230
			-0.754268  0.054615  0.654291
			-0.629351 -0.032782  0.776429
			-0.590955 -0.056514  0.804723
			-0.339459 -0.100890  0.935195
			 0.209179 -0.329944 -0.920533
			-0.126140 -0.270687 -0.954367
			-0.223628 -0.400364 -0.888650
			 0.703874 -0.297095 -0.645210
			 0.087612 -0.415883 -0.905188
			 0.531136 -0.248632 -0.809986
			 0.835897 -0.216211 -0.504509
			 0.762312 -0.144735 -0.630819
			 0.751753 -0.053893 -0.657238
			 0.846123  0.067873 -0.528648
			 0.950831  0.165868 -0.261549
			 0.966916  0.246533 -0.065536
			 0.954998  0.279177  0.100195
			 0.994505  0.093095  0.047894
			 0.947942  0.301842 -0.101473
			 0.948028  0.303469  0.095652
			 0.921767  0.252608 -0.294167
			 0.954764  0.255950 -0.151376
			 0.959259  0.161728 -0.231660
			-0.932437 -0.233420 -0.275821
			-0.853174 -0.264894 -0.449361
			-0.688115 -0.381804 -0.617028
			-0.410330 -0.440947 -0.798245
			-0.561570 -0.275671 -0.780156
			-0.186968 -0.299835 -0.935490
			 0.060383 -0.305957 -0.950129
			-0.225956  0.045814  0.973060
			-0.441333  0.170031  0.881087
			-0.553926  0.125135  0.823108
			-0.363624  0.090616  0.927128
			-0.083352  0.131968  0.987743
			 0.400385 -0.137141  0.906027
			 0.152289 -0.072062  0.985705
			-0.072451  0.065759  0.995202
			 0.973576  0.227841  0.015424
			 0.961708  0.194959 -0.192636
			 0.967015  0.253042  0.029201
			 0.983638  0.156035 -0.090054
			 0.261828  0.129473  0.956391
			 0.358479  0.165633  0.918726
			 0.309497  0.194534  0.930789
			 0.625604  0.343843  0.700280
			 0.721404  0.569638  0.393813
			 0.385676  0.332341  0.860699
			 0.217510  0.021870  0.975813
			 0.837928  0.483011  0.254120
			 0.690522  0.692113  0.210142
			 0.905090  0.325866  0.273173
			-0.969406  0.132161  0.206845
			-0.976981  0.159938  0.141168
			-0.945477 -0.040526 -0.323158
			-0.996172  0.013516 -0.086359
			-0.997287 -0.064167 -0.036059
			-0.973121  0.163494  0.162190
			-0.939228  0.117423  0.322587
			-0.961165 -0.045097  0.272266
			-0.993937 -0.086467 -0.067918
			-0.997827 -0.065872  0.001175
			-0.996774 -0.046163 -0.065661
			-0.998027 -0.022613  0.058571
			-0.999935 -0.004935  0.010261
			-0.879466  0.096557  0.466065
			-0.762028  0.069315  0.643823
			-0.877783  0.200888  0.434905
			-0.616828 -0.052319  0.785357
			-0.422904 -0.068703  0.903567
			-0.368448 -0.173874 -0.913244
			-0.452039 -0.139856 -0.880966
			-0.425789 -0.014339 -0.904709
			-0.290781 -0.203655 -0.934864
			-0.215210 -0.291883 -0.931928
			 0.289127 -0.270862 -0.918172
			 0.015228 -0.237465 -0.971277
			 0.256612 -0.129516 -0.957797
			 0.547221 -0.095743 -0.831494
			 0.486480 -0.010611 -0.873627
			 0.651478  0.061184 -0.756196
			 0.857573  0.217950 -0.465903
			 0.641303  0.206836 -0.738884
			 0.906842  0.393253 -0.151622
			 0.935617  0.270203 -0.227183
			 0.928718  0.347349  0.129734
			 0.905187  0.353501 -0.235953
			 0.919991  0.385688  0.069721
			 0.974272  0.207843 -0.087148
			 0.969525  0.213817  0.119597
			 0.965207  0.204282  0.163232
			 0.990577  0.135053 -0.022738
			 0.999525  0.018571 -0.024598
			-0.708968 -0.230599 -0.666475
			-0.830692 -0.010916 -0.556625
			-0.600499 -0.268092 -0.753344
			-0.672428 -0.085513 -0.735206
			-0.559716 -0.119800 -0.819979
			-0.466481  0.020166  0.884301
			-0.666695  0.071138  0.741928
			-0.777640  0.181107  0.602060
			-0.835075  0.217772  0.505199
			-0.673136  0.203618  0.710934
			-0.411090  0.204941  0.888259
			-0.389602  0.226715  0.892642
			-0.111748  0.025291  0.993415
			 0.981037  0.100753  0.165575
			 0.998631 -0.011097  0.051120
			-0.121912  0.134194  0.983427
			 0.140405  0.150034  0.978660
			-0.182524  0.139671  0.973230
			-0.152096  0.175832  0.972600
			 0.185960  0.336840  0.923016
			 0.612576  0.422975  0.667714
			 0.606789  0.690187  0.394271
			 0.450902  0.495365  0.742497
			 0.432169  0.681725  0.590323
			 0.633327  0.604695  0.482951
			 0.825858  0.467990  0.314554
			 0.904123  0.099323  0.415568
			 0.815497  0.206031  0.540848
			 0.714763  0.368822  0.594208
			-0.942063  0.229329  0.244797
			-0.916432  0.142223 -0.374065
			-0.989463  0.035075 -0.140473
			-0.973038 -0.067477 -0.220555
			-0.967054 -0.115545 -0.226838
			-0.871779  0.185030  0.453614
			-0.845959  0.059156  0.529956
			-0.990977 -0.081833  0.106149
			-0.905465 -0.016022  0.424118
			-0.998785 -0.042321 -0.025248
			-0.972228 -0.068108 -0.223908
			-0.985149 -0.049747 -0.164335
			-0.965031 -0.099322 -0.242590
			-0.904407  0.263096  0.335900
			-0.440043 -0.038662 -0.897144
			-0.531976  0.094425 -0.841478
			-0.521524  0.039535 -0.852320
			-0.657415 -0.065959 -0.750636
			-0.708785  0.026460 -0.704929
			-0.674349  0.183508 -0.715247
			-0.196477 -0.118029 -0.973379
			-0.021526 -0.117143 -0.992882
			 0.212790 -0.056009 -0.975491
			 0.361849  0.118260 -0.924705
			 0.150463  0.058633 -0.986876
			 0.740862  0.432707 -0.513701
			 0.866669  0.417678 -0.272820
			 0.486501  0.320308 -0.812846
			 0.228863  0.238858 -0.943699
			 0.850521  0.447665 -0.276060
			 0.879063  0.354955 -0.318207
			 0.830109  0.524252 -0.189946
			 0.569840  0.807485  0.152483
			 0.801995  0.478001 -0.358216
			 0.879140  0.471754 -0.067535
			 0.935737 -0.006287 -0.352641
			 0.993811 -0.076636 -0.080416
			 0.997112 -0.072813 -0.021599
			 0.978498 -0.085858 -0.187537
			-0.788193  0.019954 -0.615105
			-0.892501  0.234727  0.385157
			-0.919471  0.249288  0.304021
			-0.683487  0.267924  0.679016
			-0.719396  0.283971  0.633900
			-0.776035  0.315035  0.546373
			-0.414299  0.157587  0.896394
			-0.667026  0.198194  0.718189
			 0.985399 -0.007836  0.170080
			 0.998082 -0.051136  0.034879
			-0.504203  0.142259  0.851787
			-0.548351  0.115617  0.828217
			-0.211285  0.306382  0.928164
			-0.607323  0.209260  0.766400
			-0.045944  0.425968  0.903571
			 0.253013  0.480288  0.839826
			-0.027053  0.547496  0.836371
			-0.347556  0.554848  0.755876
			 0.202377  0.712917  0.671411
			 0.355871  0.634949  0.685708
			 0.763569  0.137851  0.630840
			 0.932438 -0.015570  0.360993
			 0.752703  0.009276  0.658295
			 0.414224  0.345185  0.842179
			 0.638257  0.155918  0.753868
			-0.910004  0.230220  0.344806
			-0.845845  0.126265 -0.518270
			-0.847977  0.132847 -0.513115
			-0.934440 -0.000854 -0.356119
			-0.911453 -0.088932 -0.401676
			-0.827361  0.133995  0.545453
			-0.750513  0.061806  0.657959
			-0.999418 -0.033086 -0.008311
			-0.997054 -0.024662  0.072627
			-0.960442 -0.011030  0.278260
			-0.847514 -0.018294  0.530458
			 0.999401  0.019332 -0.028692
			 0.049783 -0.536189 -0.842629
			-0.920577 -0.087917 -0.380537
			-0.915348 -0.086850 -0.393186
			-0.996209 -0.043501 -0.075332
			-0.951888 -0.099972 -0.289681
			-0.959295 -0.054821 -0.277034
			-0.998459 -0.022084 -0.050909
			-0.895674 -0.129265 -0.425509
			-0.162690 -0.034175 -0.986085
			-0.584387  0.097394 -0.805609
			-0.520192  0.077341 -0.850540
			-0.650396  0.177285 -0.738617
			-0.825039  0.188231 -0.532803
			-0.007569  0.157615 -0.987472
			-0.144122  0.091162 -0.985352
			 0.564613  0.725071 -0.394314
			 0.421755  0.484287 -0.766543
			 0.400302  0.213863 -0.891079
			-0.132626  0.198822 -0.971020
			-0.249050  0.273765 -0.928993
			-0.022610  0.330334 -0.943593
			 0.775198  0.298530 -0.556730
			 0.779831  0.526780 -0.338181
			 0.865839  0.108347 -0.488451
			 0.907397 -0.113371 -0.404695
			 0.781471 -0.127380 -0.610800
			 0.856546 -0.031823 -0.515088
			 0.977540 -0.141737 -0.155967
			 0.977374 -0.103993 -0.184191
			 0.993731 -0.111690  0.004828
			 0.990395 -0.065037 -0.122018
			-0.902809  0.197681  0.381913
			-0.799751  0.209832  0.562467
			-0.723058  0.157876  0.672504
			-0.696909  0.202814  0.687884
			 0.990349 -0.044025  0.131416
			-0.457809  0.403152  0.792388
			-0.694768  0.332671  0.637673
			-0.014847  0.658236  0.752665
			-0.338711  0.466430  0.817140
			-0.641196  0.325985  0.694695
			 0.063381  0.539526  0.839580
			 0.982106 -0.079134  0.170897
			 0.964590 -0.064908  0.255641
			 0.902757 -0.081031  0.422450
			 0.633648 -0.007771  0.773583
			 0.813427 -0.139043  0.564804
			 0.592377 -0.093081  0.800266
			 0.090095  0.242762  0.965893
			 0.255138  0.179586  0.950081
			 0.093650  0.359011  0.928623
			 0.461958  0.071354  0.884027
			-0.673808  0.018490 -0.738675
			-0.822325 -0.026874 -0.568383
			-0.681473 -0.048659 -0.730224
			-0.760639 -0.119762 -0.638033
			-0.660480  0.073580  0.747230
			-0.979939  0.017504  0.198529
			-0.998713  0.017773  0.047510
			 0.992564 -0.065848 -0.102376
			-0.918486  0.017217  0.395078
			-0.811168  0.012696  0.584675
			-0.999819 -0.010315 -0.015994
			-0.768575 -0.157101 -0.620170
			-0.853767 -0.096427 -0.511649
			-0.767124 -0.143155 -0.625322
			-0.954591 -0.110937 -0.276493
			-0.995431 -0.056233 -0.077168
			-0.853975 -0.129229 -0.504011
			-0.985135 -0.018005  0.170836
			-0.685514  0.178487 -0.705842
			-0.699247  0.217615 -0.680953
			-0.393248  0.188138 -0.899978
			-0.559640  0.295164 -0.774391
			-0.507172  0.088593 -0.857279
			 0.238972  0.720144 -0.651372
			 0.541556  0.615937 -0.572135
			 0.090825  0.804866 -0.586466
			-0.228625  0.614273 -0.755248
			-0.574560  0.320512 -0.753096
			-0.563171  0.418496 -0.712530
			 0.556219  0.410814 -0.722394
			 0.763484  0.067851 -0.642253
			 0.559843  0.061517 -0.826312
			 0.818336 -0.186974 -0.543477
			 0.962449 -0.100732 -0.252081
			 0.903664 -0.064570 -0.423346
			 0.753434 -0.147525 -0.640760
			 0.774131 -0.156076 -0.613483
			 0.980374 -0.174240 -0.092232
			 0.954356 -0.133925 -0.266962
			 0.921738 -0.159559 -0.353467
			 0.925669 -0.212341 -0.313127
			 0.994860 -0.066464 -0.076401
			 0.976729 -0.132993  0.168265
			-0.564399  0.237389  0.790633
			-0.066656  0.372938  0.925459
			-0.347657  0.250366  0.903577
			 0.940576 -0.139715  0.309511
			 0.415127 -0.071472  0.906952
			 0.798391 -0.191310  0.570939
			 0.640065 -0.233979  0.731827
			 0.419542 -0.193550  0.886861
			-0.129768  0.190934  0.972987
			 0.188138  0.060372  0.980285
			-0.104784  0.115771  0.987734
			-0.484789 -0.048724 -0.873273
			-0.572250 -0.126845 -0.810210
			-0.751351  0.020063  0.659597
			-0.520220  0.106070  0.847420
			-0.915494 -0.003334  0.402319
			-0.669637 -0.190635 -0.717805
			-0.453813 -0.221708 -0.863076
			-0.704792 -0.142673 -0.694919
			-0.990037 -0.073676 -0.119997
			-0.931950 -0.120844 -0.341857
			-0.998829 -0.031602  0.036623
			-0.646309 -0.191314 -0.738704
			-0.847280 -0.147640 -0.510215
			-0.941734  0.006961  0.336286
			-0.979223 -0.010340  0.202525
			-0.998218 -0.041829  0.042567
			-0.702269  0.338944 -0.626048
			-0.371205  0.225411 -0.900776
			-0.341039  0.583348 -0.737155
			-0.218445  0.383035 -0.897533
			-0.428250 -0.050048 -0.902273
			-0.241639  0.055041 -0.968804
			 0.227437  0.412744 -0.881995
			 0.428909  0.002513 -0.903344
			 0.392869 -0.090731 -0.915108
			 0.268407  0.182601 -0.945841
			 0.341672 -0.172450 -0.923862
			 0.868922 -0.244169 -0.430530
			 0.720382 -0.276185 -0.636217
			 0.625709 -0.298704 -0.720599
			 0.482301 -0.314182 -0.817726
			 0.954245 -0.180985 -0.238035
			 0.993159 -0.096944 -0.065086
			 0.986236 -0.147088  0.075520
			 0.778931 -0.315365 -0.542044
			 0.860592 -0.271742 -0.430741
			 0.209919  0.121393  0.970153
			-0.457424  0.108940  0.882551
			 0.990573 -0.101615  0.091872
			 0.972357 -0.089987  0.215462
			 0.903240 -0.142017  0.404956
			 0.107831 -0.068810  0.991785
			 0.116213 -0.188456  0.975181
			 0.526522 -0.269988  0.806152
			 0.716421 -0.205543  0.666703
			 0.351282 -0.255956  0.900604
			-0.351112  0.131109  0.927109
			-0.111709 -0.018642  0.993566
			-0.295932  0.058823  0.953396
			-0.036193  0.110189  0.993251
			-0.188820  0.074362  0.979192
			-0.294761 -0.132830 -0.946294
			-0.625058  0.026710  0.780121
			-0.869595  0.014362  0.493557
			-0.257959  0.092572  0.961711
			-0.112915 -0.193751 -0.974531
			-0.303588 -0.229156 -0.924836
			-0.985183 -0.113643 -0.128453
			-0.693570 -0.171314 -0.699723
			-0.448511 -0.231789 -0.863198
			-0.934886 -0.167848 -0.312755
			-0.571645 -0.209588 -0.793281
			-0.771883 -0.228026 -0.593466
			-0.928528  0.015125  0.370955
			-0.991250 -0.078559  0.106072
			 0.083799  0.108148 -0.990597
			-0.130034 -0.063418 -0.989479
			 0.095518 -0.124928 -0.987557
			 0.143326 -0.138806 -0.979893
			 0.242854 -0.346291 -0.906148
			-0.078920 -0.241245 -0.967250
			 0.685856 -0.306029 -0.660263
			 0.598094 -0.404129 -0.692072
			 0.388409 -0.398012 -0.831098
			 0.979023 -0.085296 -0.185035
			 0.944178 -0.164967 -0.285156
			 0.986572 -0.082510 -0.140956
			 0.998459 -0.042613 -0.035553
			 0.992679 -0.022531  0.118663
			 0.655732 -0.388012 -0.647659
			 0.841075 -0.315959 -0.439048
			 0.942850  0.031695  0.331707
			 0.791413  0.026033  0.610727
			 0.907216 -0.135200  0.398348
			 0.984372 -0.044225  0.170460
			 0.963584 -0.049550  0.262776
			 0.070037 -0.070866  0.995024
			-0.156933 -0.143130  0.977182
			 0.236954 -0.322321  0.916494
			-0.099239 -0.273003  0.956881
			 0.784620 -0.175257  0.594691
			 0.555578 -0.272004  0.785714
			-0.363185 -0.054007  0.930150
			-0.301489 -0.144037  0.942527
			-0.279061  0.058312  0.958501
			-0.579141 -0.029285  0.814701
			-0.649499  0.042704  0.759162
			-0.813084  0.033768  0.581166
			-0.028875 -0.203671 -0.978614
			-0.991378 -0.130327  0.013575
			-0.984500 -0.153756 -0.084373
			-0.322616 -0.234901 -0.916919
			-0.928517 -0.216978 -0.301291
			-0.572015 -0.288494 -0.767834
			-0.310227 -0.323510 -0.893925
			-0.611119 -0.291959 -0.735726
			-0.924554 -0.272822 -0.266023
			-0.849519 -0.324748 -0.415760
			-0.769399 -0.311671 -0.557572
			-0.645142 -0.309996 -0.698351
			-0.953150 -0.084358  0.290497
			-0.813504 -0.034017  0.580564
			-0.984871 -0.136523  0.106726
			-0.077553 -0.326543 -0.941995
			 0.146019 -0.361590 -0.920832
			 0.331488 -0.452664 -0.827775
			 0.167807 -0.407845 -0.897498
			 0.987267 -0.106773 -0.117910
			 0.897222 -0.210954 -0.387931
			 0.983263 -0.114706 -0.141550
			 0.993866 -0.070426 -0.085270
			 0.977310 -0.100559 -0.186423
			 0.994775 -0.002699  0.102053
			 0.999364  0.004385 -0.035378
			 0.996348 -0.046231  0.071784
			 0.990726 -0.015795  0.134952
			 0.653223 -0.412701 -0.634806
			 0.807804 -0.319386 -0.495424
			 0.860792 -0.099607  0.499116
			 0.923262 -0.073580  0.377060
			 0.987800 -0.033206  0.152150
			 0.933379 -0.036266  0.357055
			 0.986422 -0.037847  0.159808
			-0.406761 -0.182002  0.895221
			-0.409242 -0.256014  0.875773
			 0.072428 -0.486194  0.870844
			 0.230152 -0.368588  0.900652
			 0.425032 -0.318981  0.847112
			 0.647388 -0.217596  0.730438
			-0.194754 -0.360745  0.912104
			-0.630157 -0.274183  0.726448
			-0.747424 -0.115371  0.654253
			-0.972589 -0.222086  0.068905
			-0.971074 -0.219223 -0.094641
			-0.670970 -0.297926 -0.678999
			-0.534559 -0.407544 -0.740375
			-0.282042 -0.441570 -0.851744
			-0.041609 -0.370919 -0.927733
			-0.954535 -0.296865 -0.027097
			-0.931397 -0.334469 -0.143632
			-0.890829 -0.340721 -0.300555
			-0.794790 -0.433157 -0.425070
			-0.771257 -0.457953 -0.442087
			-0.688411 -0.388503 -0.612499
			-0.907687 -0.109378  0.405142
			-0.947689 -0.110107  0.299602
			-0.855434 -0.114557  0.505084
			-0.939074 -0.174877  0.295901
			 0.028888 -0.470121 -0.882129
			 0.121835 -0.530144 -0.839109
			 0.496649 -0.475585 -0.726057
			 0.176591 -0.524004 -0.833208
			 0.927726 -0.180355 -0.326796
			 0.976465 -0.098875 -0.191674
			 0.997244 -0.069559 -0.025798
			 0.829436 -0.231960 -0.508163
			 0.974728 -0.120736 -0.187960
			 0.985423 -0.010764 -0.169780
			 0.946874 -0.133539 -0.292569
			 0.937017 -0.091573 -0.337065
			 0.999262 -0.036205  0.012872
			 0.995855  0.084783 -0.032946
			 0.975764  0.144015 -0.164756
			 0.998166 -0.011270  0.059482
			 0.711507 -0.340201 -0.614834
			 0.827781 -0.089823  0.553815
			 0.945349 -0.051287  0.322001
			 0.983956  0.028149  0.176175
			-0.394538 -0.392958  0.830617
			-0.197423 -0.515740  0.833689
			-0.028441 -0.605826  0.795089
			 0.354545 -0.444606  0.822571
			 0.162657 -0.585646  0.794079
			 0.416753 -0.382919  0.824433
			 0.664902 -0.217728  0.714492
			-0.842683 -0.221039  0.490945
			-0.395220 -0.549767  0.735906
			-0.544370 -0.535358  0.645796
			-0.662124 -0.484168  0.571990
			-0.740675 -0.437914  0.509541
			-0.950265 -0.289364  0.115177
			-0.206811 -0.535591 -0.818762
			-0.306719 -0.506205 -0.806027
			-0.492279 -0.526402 -0.693226
			-0.947974 -0.318347  0.000966
			-0.876360 -0.418439 -0.238540
			-0.907922 -0.416215 -0.049420
			-0.736573 -0.625973 -0.256159
			-0.729327 -0.577043 -0.367564
			-0.782993 -0.505412 -0.362602
			-0.692179 -0.520747 -0.499711
			-0.748927 -0.624393 -0.221904
			-0.687535 -0.644359 -0.334809
			-0.493666 -0.584572 -0.643871
			-0.895612 -0.273227  0.351036
			-0.241408 -0.601114 -0.761830
			 0.141744 -0.621108 -0.770800
			 0.118403 -0.646446 -0.753717
			-0.113272 -0.638893 -0.760911
			 0.301762 -0.609399 -0.733194
			 0.770424 -0.354130 -0.530131
			 0.586721 -0.536373 -0.606682
			 0.869097 -0.237395 -0.433953
			 0.962807 -0.133004 -0.235186
			 0.985325 -0.090122 -0.144959
			 0.791139 -0.356481 -0.497011
			 0.943642  0.078283 -0.321577
			 0.864390 -0.202487 -0.460248
			 0.898265 -0.039252 -0.437698
			 0.969893  0.223260  0.097271
			 0.960045  0.247510 -0.130582
			 0.963577  0.238554 -0.120878
			 0.943295  0.331440 -0.018506
			 0.940881  0.300756 -0.155849
			 0.920835  0.309509 -0.237206
			 0.698662 -0.253883  0.668891
			 0.742490 -0.114584  0.659984
			 0.649972 -0.272218  0.709530
			 0.760068  0.096212  0.642682
			 0.690533 -0.039895  0.722200
			 0.926233  0.044024  0.374371
			 0.939880  0.212477  0.267357
			 0.320394 -0.504254  0.801920
			 0.226625 -0.372706  0.899851
			-0.008171 -0.437123  0.899365
			-0.223668 -0.575805  0.786398
			 0.388554 -0.454864  0.801327
			-0.440609 -0.619049  0.650109
			-0.467053 -0.542359  0.698361
			-0.620366 -0.554644  0.554541
			-0.709147 -0.526557  0.468879
			-0.761760 -0.434510  0.480544
			-0.715364 -0.508003  0.479778
			-0.758427 -0.412737  0.504417
			-0.908400 -0.349818  0.228993
			-0.926126 -0.357253  0.121085
			-0.833159 -0.534653 -0.141396
			-0.876502 -0.479917 -0.037748
			-0.872994 -0.473279  0.117846
			-0.658514 -0.723777 -0.206168
			-0.758317 -0.626277 -0.180921
			-0.687016 -0.702593 -0.185398
			-0.740736 -0.619862 -0.258999
			-0.548061 -0.652480 -0.523354
			-0.741664 -0.621240 -0.252974
			-0.687160 -0.651580 -0.321334
			-0.723479 -0.651118 -0.229398
			-0.701635 -0.667380 -0.249626
			-0.519121 -0.760310 -0.390439
			-0.202053 -0.727213 -0.656000
			-0.817312 -0.419004  0.395522
			 0.342804 -0.695903 -0.631035
			 0.022742 -0.798830 -0.601126
			 0.622760 -0.486458 -0.612804
			 0.780354 -0.276622 -0.560828
			 0.916912  0.202638 -0.343818
			 0.840606 -0.137414 -0.523926
			 0.848315  0.035693 -0.528288
			 0.917920  0.348564  0.189543
			 0.935208  0.305849 -0.178446
			 0.933230  0.311848 -0.178415
			 0.924541  0.347530 -0.156357
			 0.939652  0.312126 -0.140116
			 0.862345  0.487192  0.137858
			 0.908025  0.414282 -0.062136
			 0.895693  0.368017 -0.249594
			 0.903131  0.367098 -0.222696
			 0.593287 -0.238005  0.769002
			 0.563943  0.059065  0.823699
			 0.579117  0.216756  0.785901
			 0.592367  0.355130  0.723177
			 0.687394  0.405506  0.602541
			 0.799906  0.211877  0.561478
			 0.889967  0.155760  0.428600
			 0.449626 -0.133076  0.883248
			 0.487678 -0.236719  0.840318
			 0.862188  0.340744  0.374868
			 0.245831 -0.166610  0.954886
			 0.031879 -0.243998  0.969252
			-0.174478 -0.400033  0.899739
			-0.326763 -0.584980  0.742310
			-0.541506 -0.453061  0.708171
			-0.329083 -0.398070  0.856297
			-0.388943 -0.287458  0.875267
			-0.687407 -0.408560  0.600458
			-0.740821 -0.418642  0.525284
			-0.747149 -0.346318  0.567303
			-0.813210 -0.463574  0.351836
			-0.746947 -0.291716  0.597472
			-0.634116 -0.245212  0.733326
			-0.865910 -0.267377  0.422740
			-0.777707 -0.124279  0.616220
			-0.850605 -0.441344  0.285809
			-0.924708 -0.377088 -0.052147
			-0.899133 -0.404756 -0.166531
			-0.806324 -0.580781 -0.111964
			-0.909856 -0.414731  0.012663
			-0.851986 -0.451435  0.265191
			-0.907123 -0.351031  0.232175
			-0.829523 -0.500460  0.247854
			-0.913273 -0.400552  0.074098
			-0.808888 -0.503216 -0.304095
			-0.737328 -0.647279 -0.193333
			 0.752136 -0.614029 -0.239292
			-0.719598 -0.623676 -0.305297
			-0.782183 -0.463474 -0.416391
			-0.387022 -0.726818 -0.567406
			-0.501078 -0.634307 -0.588707
			-0.367006 -0.722751 -0.585609
			-0.752971 -0.452425 -0.477855
			-0.774734 -0.497939 -0.389671
			-0.534640 -0.621824 -0.572272
			-0.588943 -0.541570 -0.599874
			-0.713953 -0.568176 -0.409202
			-0.771072 -0.435580 -0.464455
			-0.343117 -0.768025 -0.540748
			-0.476856 -0.678310 -0.559021
			-0.381742 -0.668391 -0.638378
			 0.110642 -0.757716 -0.643137
			-0.091411 -0.726119 -0.681466
			 0.455936 -0.581734 -0.673579
			 0.658597 -0.387968 -0.644771
			 0.711695 -0.223006 -0.666152
			 0.865375  0.250215 -0.434187
			 0.872878  0.336454 -0.353388
			 0.899167  0.356839 -0.253309
			 0.705903  0.004367 -0.708295
			 0.780637  0.223854 -0.583520
			 0.853473  0.468041  0.229177
			 0.985667  0.151564 -0.074088
			 0.941128  0.294072 -0.166734
			 0.929116  0.312537 -0.197645
			 0.933716  0.307263 -0.183751
			 0.987537  0.137202 -0.077114
			 0.861922  0.501302  0.076068
			 0.736654  0.635468  0.231347
			 0.739827  0.610972  0.281728
			 0.912282  0.399617 -0.089706
			 0.864851  0.410637 -0.288807
			 0.936633  0.266637 -0.227207
			 0.343751  0.092196  0.934524
			 0.383172  0.291384  0.876513