<?xml version="1.0"?>
<VTKFile type="PolyData" version="0.1" byte_order="LittleEndian" compressor="vtkZLibDataCompressor">
	<PolyData>
		<Piece NumberOfPoints="4113" NumberOfVerts="0" NumberOfLines="0" NumberOfStrips="0" NumberOfPolys="8222">
		<PointData Normals="Normals">
		<DataArray type="Float32" Name="Normals" NumberOfComponents="3" format="ascii">
			-0.619042 -0.756869 -0.209609
			-0.612596 -0.772452 -0.167462
			-0.703661 -0.707954 -0.060524
			-0.517030 -0.820968 -0.242263
			-0.516035 -0.790777 -0.329209
			-0.525247 -0.836453 -0.156403
			-0.563896 -0.799770 -0.205888
			-0.642980 -0.765428 -0.026407
			-0.720551 -0.686980  0.094154
			-0.543470 -0.836356 -0.071755
			-0.776389 -0.613776 -0.143173
			-0.813763 -0.580248  0.033188
			-0.829459 -0.557006  0.041736
			-0.771319 -0.631521  0.079050
			-0.844045 -0.535215 -0.033649
			 0.953734 -0.276485 -0.118102
			 0.746304 -0.590236 -0.307655
			-0.619456 -0.706984 -0.341244
			-0.430302 -0.854601 -0.290685
			-0.393811 -0.793217 -0.464456
			-0.506676 -0.715821 -0.480500
			-0.317563 -0.695502 -0.644539
			-0.412594 -0.888485 -0.200898
			 0.433397 -0.809881 -0.395298
			-0.691948 -0.665595 -0.279626
			-0.550089 -0.829827  0.093757
			-0.541029 -0.840171 -0.037414
			-0.593289 -0.765691  0.248445
			-0.740646 -0.633790  0.223054
			-0.444005 -0.894911 -0.044655
			-0.797409 -0.555307 -0.236164
			-0.735233 -0.596611 -0.321695
			-0.866166 -0.483577 -0.126134
			-0.897535 -0.425341  0.116262
			-0.843344 -0.522439  0.125810
			-0.899474 -0.435813  0.031847
			-0.779863 -0.604579  0.162165
			-0.923945 -0.382131  0.017347
			-0.902161 -0.418662 -0.104061
			-0.521562 -0.746487 -0.413195
			-0.262253 -0.883456 -0.388237
			-0.339523 -0.840727 -0.421785
			-0.267893 -0.734326 -0.623698
			-0.210888 -0.659811 -0.721232
			-0.368200 -0.631515 -0.682362
			-0.503940 -0.573128 -0.646196
			-0.645467 -0.640639 -0.415877
			-0.294026 -0.500158 -0.814488
			-0.197982 -0.522068 -0.829607
			-0.367260 -0.904923 -0.215024
			-0.685318 -0.628653 -0.367607
			-0.389993 -0.918653  0.063101
			-0.389445 -0.881798  0.266018
			-0.475802 -0.802862  0.359202
			-0.537152 -0.760021  0.365837
			-0.664964 -0.685669  0.296109
			-0.821995 -0.519076  0.234274
			-0.669201 -0.633053  0.389120
			-0.271556 -0.960766 -0.056444
			-0.742223 -0.492111 -0.454898
			-0.861566 -0.444059 -0.246000
			-0.657897 -0.548034 -0.516556
			-0.940213 -0.318539  0.120549
			-0.916479 -0.352055  0.190061
			-0.933375 -0.318473  0.165485
			-0.873536 -0.440437  0.207244
			-0.922577 -0.301685  0.240494
			-0.937571 -0.346967 -0.023978
			-0.966526 -0.256565  0.001532
			-0.962519 -0.271119 -0.007241
			-0.942980 -0.283132 -0.175000
			-0.284971 -0.916028 -0.282283
			-0.027718 -0.894578 -0.446052
			-0.120281 -0.954187 -0.273969
			-0.166759 -0.965871 -0.198205
			-0.274137 -0.810494 -0.517637
			-0.142961 -0.759614 -0.634468
			-0.135811 -0.582011 -0.801760
			-0.138301 -0.509806 -0.849100
			-0.107226 -0.519127 -0.847945
			-0.489297 -0.495198 -0.717891
			-0.237727 -0.261549 -0.935456
			-0.376298 -0.290232 -0.879867
			-0.171144 -0.286320 -0.942725
			-0.225078 -0.951230 -0.210952
			-0.256338 -0.933327 -0.251378
			-0.236605 -0.968191  0.081383
			-0.208098 -0.930861  0.300321
			-0.280495 -0.858910  0.428481
			-0.408990 -0.831102  0.376825
			-0.387031 -0.802334  0.454387
			-0.468431 -0.794262  0.386937
			-0.518355 -0.736757  0.434162
			-0.816263 -0.490333  0.305432
			-0.690466 -0.523327  0.499385
			-0.460072 -0.621942  0.633658
			-0.445779 -0.723518  0.527070
			-0.065676 -0.997512  0.025634
			-0.191944 -0.976321 -0.099771
			-0.092799 -0.992904 -0.074370
			 0.030778 -0.998882 -0.035874
			-0.610669 -0.443840 -0.655812
			-0.684284 -0.395662 -0.612542
			-0.603719 -0.418148 -0.678731
			-0.855303 -0.371147 -0.361533
			-0.803655 -0.362353 -0.472058
			-0.516860 -0.367775 -0.773045
			-0.928947 -0.257961  0.265546
			-0.989830 -0.080030  0.117607
			-0.982304 -0.072011  0.172895
			-0.920364 -0.331562  0.207356
			-0.856759 -0.422486  0.295753
			-0.898781 -0.207016  0.386441
			-0.904457 -0.169787  0.391318
			-0.923319 -0.313877  0.221277
			-0.909898 -0.215413  0.354517
			-0.912392 -0.270019  0.307621
			-0.967895 -0.201459  0.150309
			-0.976539 -0.213346 -0.029250
			-0.944543 -0.285057 -0.163036
			-0.884402 -0.267619 -0.382377
			-0.070628 -0.930843 -0.358528
			 0.227307 -0.901788 -0.367572
			 0.139581 -0.960849 -0.239344
			 0.018179 -0.844505 -0.535239
			-0.049531 -0.594147 -0.802830
			-0.003713 -0.739481 -0.673167
			-0.107493 -0.420231 -0.901028
			-0.100592 -0.458487 -0.882990
			-0.111637 -0.322024 -0.940126
			-0.230285  0.000210 -0.973123
			-0.217708 -0.017152 -0.975863
			-0.341831 -0.084660 -0.935940
			-0.139343 -0.065239 -0.988093
			-0.098512 -0.963016 -0.250791
			-0.106192 -0.980350  0.166243
			-0.228801 -0.869452  0.437839
			 0.013254 -0.947760  0.318710
			-0.218648 -0.786650  0.577386
			-0.342114 -0.677594  0.651017
			-0.427224 -0.781308  0.455014
			-0.534628 -0.472786  0.700462
			-0.570970 -0.400597  0.716600
			-0.666271 -0.392672  0.633950
			-0.784540 -0.363050  0.502684
			-0.414308 -0.423630  0.805535
			 0.218569 -0.964388  0.148938
			 0.302209 -0.952257 -0.043308
			-0.498839 -0.334844 -0.799399
			-0.467699 -0.286792 -0.836067
			-0.457414 -0.365854 -0.810508
			-0.556338 -0.283617 -0.781057
			-0.726091 -0.282719 -0.626787
			-0.307105 -0.308644 -0.900236
			-0.323931 -0.137621 -0.936018
			-0.980063 -0.103752  0.169443
			-0.993343  0.051090  0.103241
			-0.980174  0.077663  0.182283
			-0.972469  0.089798  0.215034
			-0.984263 -0.048378  0.169959
			-0.999538 -0.020806  0.022161
			-0.881242 -0.356841  0.309964
			-0.775311 -0.105906  0.622637
			-0.778259 -0.161067  0.606935
			-0.857444 -0.245918  0.452012
			-0.809305 -0.126178  0.573676
			-0.809673 -0.270774  0.520683
			-0.950155 -0.278313  0.140528
			-0.935829 -0.279242  0.215056
			-0.982661 -0.148671 -0.110794
			-0.967402 -0.236157 -0.091457
			-0.980914 -0.163779  0.104806
			-0.879545 -0.403137 -0.252748
			-0.850632 -0.309772 -0.424814
			-0.964784 -0.256948  0.056293
			-0.921779 -0.365888 -0.128257
			-0.967356 -0.252385  0.022891
			 0.442999 -0.887193 -0.128999
			 0.455979 -0.878984 -0.139534
			 0.327283 -0.889781 -0.318080
			 0.242773 -0.892976 -0.379020
			 0.116315 -0.843550 -0.524304
			 0.379358 -0.908844 -0.173466
			 0.580881 -0.798689 -0.157077
			 0.175139 -0.682707 -0.709393
			 0.010220 -0.550216 -0.834960
			-0.046729 -0.443623 -0.894994
			-0.051196 -0.300999 -0.952249
			 0.009333 -0.178132 -0.983962
			-0.198176 -0.243373 -0.949471
			-0.104198 -0.083603 -0.991036
			-0.171580  0.004343 -0.985161
			-0.094839  0.004792 -0.995481
			-0.175409 -0.030639 -0.984019
			-0.221062 -0.009594 -0.975213
			-0.087472 -0.894803  0.437808
			-0.004238 -0.835736  0.549115
			 0.275570 -0.860865  0.427753
			 0.155532 -0.849439  0.504246
			-0.003758 -0.794363  0.607431
			-0.059569 -0.707238  0.704461
			-0.271704 -0.629085  0.728306
			-0.293284 -0.519370  0.802645
			-0.133903 -0.518659  0.844431
			-0.505857 -0.339177  0.793138
			-0.596561 -0.311398  0.739694
			-0.565477 -0.302368  0.767340
			-0.510649 -0.264365  0.818137
			-0.550924 -0.320216  0.770678
			-0.637694 -0.210245  0.741042
			-0.682515 -0.251897  0.686091
			-0.639825 -0.183316  0.746337
			-0.315412 -0.396652  0.862080
			-0.392516 -0.191302  0.899630
			-0.335507 -0.298393  0.893530
			 0.332127 -0.943084  0.016824
			 0.396093 -0.917540  0.035067
			 0.376511 -0.862279  0.338695
			 0.415035 -0.894199  0.167791
			 0.824603 -0.565584 -0.012007
			-0.229974 -0.180382 -0.956334
			-0.201943 -0.254891 -0.945648
			-0.353262 -0.195669 -0.914833
			-0.471265 -0.208038 -0.857105
			-0.651465 -0.346324 -0.675021
			-0.485830 -0.288747 -0.824982
			-0.005136 -0.193092 -0.981167
			-0.991635 -0.057191 -0.115713
			-0.997613 -0.067214 -0.015806
			-0.987927 -0.053350  0.145445
			-0.972834 -0.168988  0.158234
			-0.968493 -0.143012  0.203886
			-0.601303 -0.032811  0.798347
			-0.624967 -0.042493  0.779494
			-0.700182 -0.102304  0.706597
			-0.635725 -0.378317  0.672851
			-0.517507 -0.188832  0.834583
			-0.863703 -0.338037  0.373830
			-0.898266 -0.332700  0.287103
			-0.965872 -0.258942  0.006391
			-0.979893 -0.157587 -0.122372
			-0.936917 -0.292409  0.191530
			-0.979098 -0.202111 -0.022759
			-0.954473 -0.218131 -0.203472
			-0.959004 -0.235547 -0.157569
			-0.967745 -0.131594  0.214832
			-0.936835 -0.109759  0.332105
			-0.808381 -0.446298 -0.383845
			-0.951736 -0.304625 -0.037452
			-0.902852 -0.392707 -0.175041
			-0.974836 -0.180642  0.130625
			-0.971168 -0.116036  0.208250
			-0.979107 -0.183349  0.087933
			 0.905493 -0.422673 -0.037808
			 0.342363 -0.937576 -0.061155
			 0.799113 -0.601064 -0.011808
			 0.417470 -0.908489  0.019158
			 0.548959 -0.835580  0.021205
			 0.656061 -0.742451 -0.135463
			 0.668851 -0.743341  0.009040
			 0.428575 -0.843223 -0.324496
			 0.231165 -0.878801 -0.417458
			 0.247299 -0.815459 -0.523326
			 0.444018 -0.674497 -0.589831
			 0.211105 -0.512612 -0.832264
			 0.445336 -0.746613 -0.494212
			 0.371390 -0.775300 -0.510862
			 0.073287 -0.523671 -0.848763
			 0.036631 -0.398688 -0.916355
			-0.129926 -0.281512 -0.950721
			 0.058512 -0.113399 -0.991825
			-0.295233 -0.121468 -0.947673
			-0.197772 -0.046103 -0.979163
			 0.012705 -0.077096 -0.996943
			-0.017220 -0.154324 -0.987870
			-0.084788 -0.154561 -0.984338
			-0.311692  0.011356 -0.950115
			-0.277335 -0.038918 -0.959985
			-0.077195 -0.059433 -0.995243
			-0.181880  0.030215 -0.982857
			 0.348742 -0.794195  0.497628
			 0.178429 -0.765545  0.618146
			 0.429453 -0.803252  0.412742
			 0.050942 -0.660855  0.748783
			-0.167836 -0.548636  0.819042
			-0.301608 -0.476599  0.825764
			 0.340332 -0.344241  0.875027
			 0.612447 -0.284248  0.737639
			-0.561854 -0.172196  0.809116
			-0.419252 -0.034528  0.907213
			 0.199376 -0.131043  0.971121
			 0.749664 -0.178669  0.637245
			-0.508244 -0.000927  0.861212
			 0.751210 -0.064061  0.656947
			-0.554199 -0.044715  0.831182
			-0.085007 -0.190774  0.977946
			-0.297446 -0.007553  0.954709
			 0.475496 -0.879335  0.025943
			 0.497739 -0.830739  0.249256
			 0.553282 -0.806579  0.208110
			-0.085405 -0.179478 -0.980048
			-0.219953 -0.252286 -0.942323
			-0.453367 -0.454977 -0.766456
			-0.673823 -0.493983 -0.549494
			-0.962080 -0.261646 -0.077098
			-0.965439 -0.260028 -0.017687
			-0.976952 -0.210545  0.035149
			-0.973502 -0.101248  0.205043
			-0.428503  0.026309  0.903157
			-0.377045 -0.025752  0.925837
			-0.543797 -0.074211  0.835929
			-0.474580 -0.372778  0.797377
			-0.759439 -0.404006  0.509934
			-0.594078 -0.420498  0.685749
			-0.169834 -0.208469  0.963170
			-0.386602 -0.345508  0.855081
			-0.966729 -0.204984  0.153028
			-0.874456 -0.273617  0.400575
			-0.971984 -0.137697 -0.190491
			-0.985116 -0.118786 -0.124240
			-0.975193 -0.191305 -0.111362
			-0.961436 -0.125228 -0.244864
			-0.968245 -0.124293 -0.216914
			-0.985375 -0.102730 -0.135953
			-0.952741 -0.254518 -0.165847
			-0.975461 -0.142928 -0.167473
			-0.985515 -0.098932 -0.137744
			-0.808782 -0.499022 -0.311207
			-0.988849 -0.058122  0.137115
			-0.983448 -0.175104 -0.046569
			-0.943463 -0.262677 -0.202185
			 0.587581 -0.802423  0.104234
			 0.729191 -0.682803 -0.045388
			 0.584355 -0.742069 -0.328426
			 0.727662 -0.658920 -0.190611
			 0.752488 -0.651429 -0.096960
			 0.703129 -0.683220  0.197028
			 0.774999 -0.631827  0.013061
			 0.764001 -0.644938  0.018904
			 0.846593 -0.528436  0.063529
			 0.519533 -0.521648 -0.676734
			 0.667607 -0.575886 -0.471865
			 0.562472 -0.710544 -0.422793
			 0.083642 -0.325777 -0.941739
			 0.321341 -0.419971 -0.848743
			-0.130843 -0.224040 -0.965757
			-0.263638 -0.076265 -0.961602
			-0.232784 -0.065416 -0.970326
			 0.001491 -0.188773 -0.982020
			 0.012734 -0.100600 -0.994846
			-0.247198  0.026367 -0.968606
			-0.197072  0.071382 -0.977787
			-0.005615 -0.050693 -0.998699
			 0.529892 -0.743334  0.408251
			 0.418040 -0.729806  0.540949
			 0.507122 -0.706897  0.493076
			 0.189060 -0.692207  0.696495
			 0.224094 -0.605102  0.763959
			 0.373811 -0.626840  0.683620
			-0.011278 -0.516952  0.855940
			 0.113948 -0.605695  0.787496
			-0.287784 -0.384907  0.876942
			-0.154403 -0.336670  0.928877
			-0.299303 -0.357445  0.884675
			-0.249178 -0.238034  0.938749
			-0.080643 -0.171298  0.981913
			 0.793487 -0.155949  0.588267
			-0.384091  0.141926  0.912322
			-0.411715  0.090196  0.906838
			-0.299077 -0.039353  0.953417
			-0.246473 -0.171765  0.953807
			-0.416583  0.065254  0.906753
			-0.445918  0.131133  0.885416
			-0.239203 -0.127055  0.962621
			-0.180442 -0.059978  0.981755
			 0.686673 -0.642892  0.339366
			-0.017898 -0.195210 -0.980598
			 0.029487 -0.302772 -0.952607
			-0.050199 -0.486333 -0.872330
			-0.558831 -0.604214 -0.568008
			-0.396523 -0.581214 -0.710606
			-0.991835 -0.118094 -0.048136
			-0.994799 -0.054349  0.086149
			-0.995056  0.062833  0.076908
			-0.257256  0.016147  0.966209
			-0.244744 -0.080457  0.966244
			-0.318613 -0.382416  0.867320
			-0.473272 -0.502089  0.723824
			-0.677666 -0.446911  0.583985
			-0.357253 -0.437453  0.825230
			-0.280738 -0.313676  0.907080
			-0.116880 -0.246161  0.962156
			-0.230344 -0.192302  0.953919
			 0.628642 -0.046058  0.776330
			 0.794119 -0.099102  0.599629
			-0.939476 -0.183758  0.289168
			-0.965210 -0.121940  0.231303
			-0.995445 -0.042612  0.085282
			-0.697795 -0.409822  0.587476
			-0.807862 -0.265104  0.526382
			-0.920075 -0.125585  0.371067
			-0.964985 -0.102607 -0.241404
			-0.996271 -0.072755 -0.046385
			 0.138983 -0.487189 -0.862166
			-0.952348 -0.101101 -0.287771
			 0.087866 -0.596116 -0.798076
			-0.984617 -0.097173 -0.145211
			-0.935473 -0.051081 -0.349687
			-0.993184  0.074597 -0.089556
			-0.933274 -0.074746 -0.351302
			-0.693315 -0.559804 -0.453799
			-0.803127 -0.411485 -0.430891
			-0.891107 -0.338424 -0.302320
			-0.998298  0.014025  0.056611
			-0.996815 -0.036269 -0.071032
			-0.957608 -0.155362 -0.242590
			 0.676505 -0.645749 -0.354048
			 0.811499 -0.486730 -0.323362
			 0.818130 -0.537676 -0.203882
			 0.787197 -0.606348 -0.112527
			 0.714613 -0.695840 -0.071657
			 0.935410 -0.337214  0.106275
			 0.729471 -0.626538  0.274451
			 0.748746 -0.661781 -0.037766
			 0.844225 -0.535403  0.025047
			 0.855205 -0.517913 -0.019739
			 0.882610 -0.468911  0.033489
			 0.964816 -0.258205  0.049610
			 0.726730 -0.492328 -0.479038
			 0.600018 -0.430837 -0.674061
			 0.801020 -0.459832 -0.383305
			 0.812909 -0.427165 -0.395865
			 0.760773 -0.510520 -0.400741
			 0.089181 -0.265116 -0.960083
			 0.295512 -0.348630 -0.889455
			-0.037557 -0.148394 -0.988215
			-0.112524 -0.114924 -0.986981
			 0.120238 -0.338002 -0.933433
			 0.150261 -0.353229 -0.923391
			 0.050057 -0.201625 -0.978183
			 0.185941 -0.154444 -0.970347
			-0.295821 -0.031528 -0.954723
			-0.236456 -0.033795 -0.971054
			-0.052653 -0.237297 -0.970009
			 0.656061 -0.606659  0.448942
			 0.537438 -0.624060  0.567194
			 0.073599 -0.480993  0.873630
			 0.201953 -0.508120  0.837275
			 0.398349 -0.573869  0.715536
			 0.265146 -0.472713  0.840381
			 0.285010 -0.543405  0.789608
			-0.008032 -0.370655  0.928736
			-0.100227 -0.222614  0.969741
			-0.384740  0.194234  0.902357
			-0.319011  0.158340  0.934431
			-0.056746  0.081437  0.995062
			-0.578005  0.135678  0.804675
			-0.358945  0.006836  0.933334
			-0.556049  0.069024  0.828279
			-0.439978  0.134623  0.887860
			-0.062434 -0.226024  0.972119
			-0.128710 -0.090046  0.987586
			-0.239461 -0.034560  0.970291
			 0.724863 -0.589976  0.355671
			 0.739656 -0.596760  0.311106
			 0.242006 -0.552517 -0.797596
			 0.100821 -0.479831 -0.871549
			-0.224741 -0.647606 -0.728078
			 0.066891 -0.538590 -0.839908
			 0.039874 -0.532445 -0.845525
			 0.041331 -0.629025 -0.776286
			-0.483326 -0.542749 -0.686891
			-0.578894 -0.534799 -0.615525
			-0.998825 -0.028639  0.039101
			-0.996848  0.027238  0.074513
			-0.985577  0.003243 -0.169196
			-0.992314  0.071176 -0.101229
			-0.999233  0.039069  0.002483
			-0.128214 -0.447387  0.885102
			-0.321695 -0.421667  0.847768
			-0.325249 -0.488130  0.809902
			-0.386960 -0.517433  0.763233
			-0.473959 -0.515442  0.713920
			-0.631932 -0.410286  0.657516
			-0.176414 -0.149245  0.972936
			-0.089832 -0.169615  0.981408
			-0.189679 -0.108171  0.975869
			-0.133427 -0.162085  0.977715
			 0.025238 -0.324087  0.945691
			-0.007418 -0.181355  0.983390
			 0.607013 -0.044090  0.793468
			-0.943671 -0.034178  0.329116
			-0.995024  0.087050  0.048480
			-0.956950  0.015390  0.289845
			-0.791416 -0.212097  0.573302
			-0.865124 -0.002574  0.501551
			-0.916659 -0.111005 -0.383946
			-0.980972 -0.105544 -0.162956
			-0.966214 -0.086341 -0.242848
			-0.996570 -0.031605 -0.076483
			-0.999084 -0.032122 -0.028271
			-0.999725 -0.009174 -0.021604
			 0.918776 -0.190695 -0.345668
			-0.975825 -0.082814 -0.202258
			-0.989651 -0.016824 -0.142504
			-0.966040  0.038423 -0.255520
			-0.920813  0.004235 -0.389981
			-0.995006  0.092975 -0.036311
			-0.991839  0.126003  0.019438
			-0.981452  0.160064  0.105512
			-0.916394 -0.196467 -0.348745
			-0.846426 -0.267301 -0.460557
			-0.685561 -0.431326 -0.586484
			 0.803932 -0.507246 -0.310476
			 0.875018 -0.462956 -0.141476
			 0.829388 -0.520978  0.201735
			 0.936586 -0.340461  0.083028
			 0.800573 -0.589867  0.105541
			 0.866573 -0.495898  0.056001
			 0.916359 -0.394968 -0.065477
			 0.914599 -0.370996  0.160843
			 0.934766 -0.354215  0.027262
			 0.753696 -0.385539 -0.532261
			 0.797972 -0.486135 -0.356249
			 0.822215 -0.407633 -0.397237
			 0.604371 -0.291164 -0.741593
			 0.271236 -0.229000 -0.934874
			-0.014747 -0.148651 -0.988780
			 0.122302 -0.257693 -0.958455
			 0.309385 -0.264570 -0.913392
			-0.227692 -0.052676 -0.972307
			 0.199823 -0.432772 -0.879079
			 0.672231 -0.224322 -0.705539
			 0.828686 -0.133562 -0.543545
			-0.011030 -0.245382 -0.969364
			-0.291398 -0.084468 -0.952866
			 0.027893 -0.301560 -0.953039
			-0.078702 -0.241098 -0.967304
			 0.170614 -0.350529 -0.920880
			 0.820159 -0.472874  0.322071
			 0.765409 -0.503349  0.400985
			 0.688950 -0.540247  0.483198
			 0.521553 -0.528410  0.669900
			 0.460289 -0.557696  0.690731
			 0.618003 -0.583647  0.526716
			 0.059948 -0.392447  0.917819
			 0.139746 -0.458976  0.877389
			 0.346312 -0.416121  0.840780
			 0.077011 -0.328114  0.941494
			 0.184042 -0.233799  0.954708
			-0.294549  0.069028  0.953140
			-0.568271  0.108144  0.815704
			-0.443944  0.006343  0.896032
			-0.366343 -0.007441  0.930450
			-0.531025  0.051179  0.845809
			-0.613967  0.060947  0.786975
			-0.323151 -0.030591  0.945853
			-0.302617 -0.023490  0.952823
			-0.025964 -0.162602  0.986350
			 0.055852 -0.103649  0.993045
			-0.028763 -0.060063  0.997780
			-0.125281 -0.051469  0.990785
			-0.348813 -0.013115  0.937101
			 0.783434 -0.539524  0.308457
			 0.807731 -0.551370  0.208713
			 0.091907 -0.589023 -0.802873
			 0.021390 -0.699615 -0.714200
			 0.296399 -0.613011 -0.732369
			 0.348999 -0.585169 -0.731968
			 0.271593 -0.514443 -0.813379
			 0.052424 -0.553058 -0.831492
			 0.125694 -0.639972 -0.758048
			-0.489818 -0.506198 -0.709818
			-0.242785 -0.662495 -0.708630
			-0.135040 -0.732829 -0.666878
			-0.708785 -0.315615 -0.630881
			-0.610755 -0.400402 -0.683123
			-0.999653 -0.015572  0.021249
			-0.946157 -0.082570 -0.313001
			-0.954434  0.066093 -0.291010
			-0.991322  0.079171 -0.104941
			-0.995886  0.008333 -0.090228
			-0.250501 -0.513190  0.820905
			 0.153102 -0.362094  0.919482
			-0.018785 -0.443512  0.896072
			-0.310492 -0.582216  0.751412
			-0.432361 -0.524836  0.733220
			-0.624634 -0.369817  0.687799
			-0.256770 -0.085607  0.962674
			-0.462900 -0.034162  0.885752
			-0.453153 -0.048217  0.890128
			 0.068026 -0.232966  0.970103
			-0.257276 -0.163409  0.952421
			-0.146071 -0.205150  0.967769
			-0.419543 -0.060603  0.905710
			-0.905685  0.043083  0.421757
			-0.951677  0.065937  0.299938
			-0.597397 -0.279563  0.751639
			-0.705879 -0.149653  0.692342
			-0.720785  0.009921  0.693088
			-0.784104  0.146935  0.602986
			-0.832236  0.210975  0.512711
			-0.763157  0.138935  0.631101
			-0.984002 -0.011170  0.177809
			-0.994497 -0.007871  0.104473
			-0.944066 -0.011964  0.329541
			-0.999795  0.019290  0.006176
			-0.997202  0.051368  0.054306
			-0.990414  0.095029  0.100252
			-0.992078  0.111926 -0.057036
			-0.997088  0.059901  0.047205
			-0.929479  0.128482  0.345776
			-0.952016  0.208076  0.224434
			-0.984004  0.172029  0.046292
			-0.842761 -0.163930 -0.512719
			 0.888157 -0.388944 -0.244745
			 0.916846 -0.378201 -0.127898
			 0.927954 -0.351183 -0.124785
			 0.863501 -0.457696  0.211851
			 0.970649 -0.231579 -0.064896
			 0.866733 -0.401294  0.296206
			 0.952714 -0.257078  0.162011
			 0.921854 -0.246886  0.298717
			 0.950489 -0.303316  0.067597
			 0.886333 -0.339149  0.315265
			 0.848962 -0.294928 -0.438498
			 0.603269 -0.234435 -0.762304
			 0.741004 -0.241651 -0.626513
			 0.488483 -0.273716 -0.828531
			 0.286798 -0.222260 -0.931852
			 0.362946 -0.161300 -0.917743
			 0.241972 -0.142201 -0.959806
			 0.037213 -0.102102 -0.994078
			 0.116249 -0.181696 -0.976459
			-0.189431 -0.000400 -0.981894
			 0.000163 -0.064724 -0.997903
			 0.231840 -0.445238 -0.864878
			 0.863171 -0.200814 -0.463259
			 0.410593 -0.378118 -0.829723
			-0.292274 -0.011183 -0.956269
			-0.228537 -0.096091 -0.968781
			-0.132012 -0.151816 -0.979553
			 0.015570 -0.224288 -0.974398
			 0.130122 -0.298919 -0.945365
			 0.011124 -0.356527 -0.934219
			 0.182761 -0.387451 -0.903593
			 0.241969 -0.436505 -0.866553
			 0.805425 -0.479002  0.349067
			 0.950527 -0.258452  0.172341
			 0.952586 -0.247114  0.177522
			 0.806913 -0.465696  0.363344
			 0.792149 -0.442641  0.420202
			 0.666892 -0.491586  0.559998
			 0.507266 -0.359027  0.783442
			 0.330940 -0.236855  0.913443
			 0.210866 -0.156495  0.964907
			-0.532832  0.047632  0.844880
			-0.528389  0.074599  0.845719
			-0.596767  0.082695  0.798142
			-0.565342  0.078035  0.821157
			 0.295021 -0.153960  0.943005
			 0.069329 -0.080546  0.994337
			 0.007085 -0.058082  0.998287
			-0.135093 -0.042366  0.989927
			 0.024912 -0.055327  0.998158
			-0.277830  0.052668  0.959185
			-0.491354  0.025090  0.870599
			-0.250788  0.028652  0.967618
			 0.833885 -0.485090  0.263295
			 0.823507 -0.480657  0.301340
			-0.152830 -0.580629 -0.799696
			 0.442268 -0.530423 -0.723223
			 0.147815 -0.442497 -0.884504
			 0.303132 -0.453429 -0.838160
			 0.472766 -0.476596 -0.741181
			-0.097379 -0.364636 -0.926044
			-0.217574 -0.367873 -0.904064
			-0.333492 -0.409475 -0.849184
			-0.476197 -0.441992 -0.760184
			-0.663346 -0.301132 -0.685049
			-0.999442 -0.031868 -0.009974
			-0.912459 -0.056016 -0.405315
			-0.833145 -0.043881 -0.551310
			-0.868849 -0.006960 -0.495028
			-0.759923 -0.008809 -0.649953
			-0.982692  0.088053 -0.162985
			-0.981743  0.030610 -0.187733
			-0.983093  0.050679 -0.175956
			-0.988132 -0.016823 -0.152681
			-0.240185 -0.563561  0.790386
			 0.232960 -0.380741  0.894855
			 0.041015 -0.163704  0.985657
			 0.261075 -0.233656  0.936613
			-0.203276 -0.287734  0.935889
			 0.087688 -0.215636  0.972529
			-0.222585 -0.394012  0.891746
			 0.274315 -0.297794  0.914369
			-0.245991 -0.465324  0.850272
			-0.403512 -0.405292  0.820315
			-0.522960 -0.386098  0.759895
			-0.134354 -0.101769  0.985694
			-0.436265 -0.083114  0.895972
			-0.524552  0.060135  0.849252
			-0.376468 -0.338229  0.862481
			-0.483856 -0.239034  0.841870
			-0.584730 -0.096250  0.805498
			-0.530643  0.180776  0.828093
			-0.477156  0.022728  0.878525
			-0.647735  0.258601  0.716635
			-0.726135  0.289902  0.623446
			-0.568572  0.307062  0.763177
			-0.910813  0.199378  0.361480
			-0.999750  0.015115  0.016498
			-0.996515 -0.008839 -0.082949
			-0.998912 -0.015729 -0.043891
			-0.999049 -0.001580  0.043571
			-0.997321  0.047452  0.055669
			-0.984561  0.144962  0.098114
			-0.990148  0.097502  0.100503
			-0.995623  0.017015  0.091893
			-0.992476  0.054585  0.109602
			-0.788117 -0.180094 -0.588590
			 0.939365 -0.277062 -0.202067
			 0.833557 -0.468826  0.292207
			 0.969956 -0.131920 -0.204409
			 0.983174 -0.106714 -0.148262
			 0.976548 -0.198387  0.083646
			 0.991152 -0.124184  0.046867
			 0.997046 -0.076795 -0.001310
			 0.869498 -0.388624  0.304869
			 0.879323 -0.384977  0.280326
			 0.973299 -0.121149  0.194966
			 0.976038 -0.153714  0.154016
			 0.920658 -0.154260  0.358598
			 0.913031 -0.323219  0.248804
			 0.858419 -0.217421 -0.464591
			 0.925258 -0.198740 -0.323111
			 0.518075 -0.168278 -0.838619
			 0.394010 -0.181764 -0.900954
			 0.857691 -0.176421 -0.482951
			 0.746965 -0.145674 -0.648708
			 0.205993 -0.144285 -0.967858
			 0.167413 -0.127395 -0.977621
			 0.243918 -0.126131 -0.961559
			-0.207954 -0.013960 -0.978039
			 0.085551 -0.087365 -0.992496
			 0.012112 -0.048189 -0.998765
			-0.136338  0.039730 -0.989865
			 0.083659 -0.220178 -0.971866
			 0.026073 -0.010145 -0.999609
			 0.376104 -0.389380 -0.840791
			 0.278216 -0.318447 -0.906194
			 0.969082 -0.208454  0.132014
			 0.886900 -0.391079  0.245898
			 0.815978 -0.390922  0.425863
			 0.728586 -0.381616  0.568798
			 0.463262 -0.229210  0.856067
			 0.631944 -0.293371  0.717342
			-0.522582  0.102982  0.846347
			 0.581994 -0.179699  0.793090
			 0.419648 -0.127581  0.898676
			 0.144522 -0.088957  0.985495
			 0.006981  0.004587  0.999965
			 0.255085 -0.084386  0.963229
			 0.320357 -0.036288  0.946602
			-0.228791  0.092239  0.969096
			-0.171928  0.111348  0.978796
			-0.433007 -0.063847  0.899127
			-0.337272  0.060947  0.939432
			-0.090894  0.163441  0.982357
			 0.540197 -0.434380 -0.720764
			 0.327061 -0.265776 -0.906860
			 0.002181 -0.218841 -0.975758
			 0.437770 -0.276582 -0.855488
			 0.483268 -0.393489 -0.782061
			-0.463868 -0.215120 -0.859389
			-0.201332 -0.241585 -0.949264
			-0.563447 -0.280216 -0.777178
			-0.711516 -0.182999 -0.678422
			-0.714209 -0.089813 -0.694147
			-0.657113 -0.081794 -0.749341
			-0.680538 -0.064424 -0.729875
			-0.563439 -0.012246 -0.826067
			-0.729451  0.014038 -0.683889
			-0.807134  0.034092 -0.589383
			-0.988296  0.000759 -0.152549
			-0.940445  0.054532 -0.335545
			-0.976919  0.113836 -0.180749
			-0.961868  0.002265 -0.273505
			-0.898984  0.134116 -0.416941
			-0.893423  0.053850 -0.445978
			-0.946729 -0.026979 -0.320898
			 0.069308 -0.195636  0.978224
			 0.339924 -0.250695  0.906424
			 0.218059 -0.236925  0.946740
			-0.331168 -0.126226  0.935091
			 0.356600 -0.232832  0.904779
			 0.251381 -0.164755  0.953763
			 0.126842 -0.053758  0.990465
			-0.100661 -0.000209  0.994921
			-0.037417 -0.132024  0.990540
			-0.266047 -0.225216  0.937281
			-0.367469 -0.131775  0.920653
			-0.264729  0.127369  0.955874
			-0.328466  0.249957  0.910841
			-0.626523  0.307429  0.716209
			-0.565834  0.310604  0.763778
			-0.733592  0.220348  0.642876
			-0.448431  0.319097  0.834917
			-0.846456  0.198373  0.494126
			-0.945415  0.151396  0.288565
			-0.996298 -0.044969 -0.073272
			-0.970309 -0.064756 -0.233041
			-0.997730 -0.030298  0.060145
			-0.995478 -0.006072  0.094799
			-0.998179 -0.023117  0.055711
			-0.911324  0.094430  0.400713
			-0.986773  0.011177  0.161725
			 0.993425  0.026473 -0.111383
			 0.954078 -0.105058 -0.280533
			 0.978956 -0.023162 -0.202753
			 0.999327  0.007318 -0.035945
			 0.985620 -0.100456  0.135873
			 0.996074  0.027588  0.084115
			 0.987336  0.132760  0.086852
			 0.982877  0.162060  0.087684
			 0.913632 -0.363422  0.182213
			 0.869360 -0.316585  0.379457
			 0.971704 -0.086312  0.219867
			 0.950492 -0.102629  0.293313
			 0.996768 -0.032653  0.073406
			 0.995018 -0.052477  0.084772
			 0.887262 -0.224568  0.402908
			 0.894544 -0.137194  0.425405
			 0.922651 -0.052842  0.381999
			 0.874161 -0.322666  0.362944
			 0.881001 -0.327486  0.341453
			 0.926637 -0.013857  0.375701
			 0.908265 -0.119578 -0.400943
			 0.572397 -0.110769 -0.812461
			 0.318455 -0.092492 -0.943415
			 0.797809 -0.121970 -0.590443
			-0.097741  0.057065 -0.993575
			 0.096503  0.043858 -0.994366
			 0.305239 -0.194572 -0.932186
			 0.104351 -0.181343 -0.977868
			 0.095203  0.080741 -0.992178
			 0.174443  0.196290 -0.964904
			 0.155959  0.210118 -0.965157
			 0.092484 -0.103955 -0.990273
			 0.056080 -0.087622 -0.994574
			 0.298461  0.076936 -0.951316
			 0.165967 -0.048931 -0.984917
			 0.487637 -0.267315 -0.831116
			 0.833911 -0.310569  0.456222
			 0.798024 -0.243054  0.551436
			 0.742480 -0.170735  0.647745
			 0.718047 -0.130050  0.683736
			 0.598588 -0.071708  0.797841
			 0.305243  0.002524  0.952271
			 0.108081  0.045135  0.993117
			 0.700046 -0.062136  0.711389
			 0.507691 -0.050154  0.860078
			-0.262730  0.151433  0.952912
			-0.281378 -0.085067  0.955819
			-0.215169  0.138977  0.966637
			 0.298808  0.184685  0.936272
			 0.141584  0.235087  0.961607
			 0.162893  0.159448  0.973675
			-0.127903  0.311026  0.941756
			-0.223338  0.230669  0.947054