<?xml version="1.0"?>
<VTKFile type="PolyData" version="0.1" byte_order="LittleEndian" compressor="vtkZLibDataCompressor">
	<PolyData>
		<Piece NumberOfPoints="99" NumberOfVerts="0" NumberOfLines="0" NumberOfStrips="0" NumberOfPolys="194">
		<PointData Normals="Normals">
		<DataArray type="Float32" Name="Normals" NumberOfComponents="3" format="ascii">
			-0.984280  0.011050  0.176269
			-0.886128  0.142050  0.441134
			-0.889975  0.310137  0.334306
			-0.875364 -0.262436  0.406035
			-0.699910 -0.714103 -0.013489
			-0.631485 -0.579492 -0.515186
			-0.898519  0.055506 -0.435410
			-0.913291  0.403889  0.052658
			-0.665611  0.370935  0.647587
			-0.643716  0.214909  0.734468
			-0.645537  0.705260  0.293071
			-0.449121 -0.310887  0.837639
			 0.013125 -0.993433  0.113663
			 0.172633 -0.856752 -0.485978
			-0.243129 -0.602713 -0.760016
			-0.613210  0.302424 -0.729735
			-0.568393  0.792868 -0.219750
			-0.307473  0.393522  0.866372
			-0.067519  0.210519  0.975255
			-0.262769  0.935520  0.236124
			-0.127716  0.988731 -0.078105
			 0.203740 -0.594941  0.777518
			 0.398168 -0.917308 -0.002903
			 0.457610 -0.847788 -0.268047
			 0.241111 -0.938348 -0.247725
			-0.293712 -0.770467 -0.565786
			-0.209268 -0.387412 -0.897841
			-0.457859  0.547910 -0.700115
			-0.517300  0.825819 -0.224553
			-0.321777  0.776454  0.541829
			-0.068233  0.116729  0.990817
			 0.300439 -0.229351  0.925816
			 0.572692  0.053986  0.817991
			-0.256521  0.965738 -0.039325
			-0.290660  0.942357  0.165769
			 0.439573 -0.857279  0.268046
			 0.159001 -0.982720 -0.094760
			-0.051729 -0.998325  0.025898
			-0.411722 -0.858876  0.304659
			-0.794617 -0.590510 -0.141003
			-0.735698 -0.040305 -0.676109
			-0.429338 -0.017921 -0.902966
			-0.561752  0.108288 -0.820188
			-0.756988  0.447975 -0.475697
			-0.407856  0.896787  0.171541
			-0.025508  0.247147  0.968642
			 0.069622  0.827712  0.556818
			-0.066973  0.990301 -0.121732
			-0.197544 -0.397323  0.896165
			-0.185747 -0.819476  0.542178
			 0.141806 -0.810050  0.568955
			-0.041575  0.998387  0.038650
			-0.012394  0.982001  0.188468
			-0.269020 -0.944656  0.187758
			 0.045154 -0.948716  0.312889
			 0.100469 -0.987746  0.119430
			-0.217686 -0.379032 -0.899415
			-0.157880  0.295538 -0.942195
			-0.188285 -0.003522 -0.982108
			-0.236394 -0.058785 -0.969877
			-0.082075  0.844337 -0.529490
			 0.464029  0.851134  0.245453
			 0.291783  0.323515  0.900111
			-0.257490 -0.418525  0.870940
			-0.361093 -0.759438  0.541170
			 0.321411  0.945649  0.049435
			 0.429044  0.902539 -0.036664
			-0.187001 -0.958509  0.215154
			 0.019261 -0.991653 -0.127493
			 0.244811 -0.966690  0.074687
			 0.637039 -0.494853 -0.591018
			 0.412423  0.141494 -0.899937
			 0.350768  0.184651 -0.918077
			 0.371815 -0.216600 -0.902684
			 0.412499 -0.018783 -0.910764
			 0.530909  0.610500 -0.587729
			 0.585629  0.615431  0.527526
			 0.367945  0.929052 -0.038450
			 0.456838  0.880593  0.125915
			 0.553267  0.184933  0.812217
			 0.495341 -0.544382  0.676968
			 0.289972 -0.930030  0.225745
			 0.292929 -0.879480  0.375111
			 0.561350  0.802336 -0.202837
			 0.716904  0.418282 -0.557754
			 0.406275 -0.908648  0.096435
			 0.187531 -0.951854 -0.242502
			 0.360333 -0.932306 -0.031072
			 0.457080 -0.756931 -0.467047
			 0.303022  0.164693 -0.938645
			 0.305328  0.298617 -0.904214
			 0.584993 -0.035514 -0.810260
			 0.921099  0.263114  0.286963
			 0.630212  0.736191 -0.246690
			 0.785741 -0.618547  0.003236
			 0.640610  0.465076 -0.611001
			 0.711039 -0.375816 -0.594295
			 0.867628 -0.488842 -0.090859
			 0.934469  0.100719 -0.341500
		</DataArray>
	</PointData>
	<Points>
		<DataArray type="Float32" NumberOfComponents="3" format="ascii">
			-0.017534 -0.005773  0.001672
			-0.014889 -0.004263  0.007677
			-0.015336 -0.001709  0.005020
			-0.015134 -0.009392  0.006469
			-0.016145 -0.011160  0.000750
			-0.016894 -0.008737 -0.003632
			-0.017213 -0.004306 -0.005621
			-0.016408 -0.000916 -0.001140
			-0.008588  0.000363  0.016332
			-0.008109 -0.002378  0.019176
			-0.009812  0.008402  0.009034
			-0.008156 -0.010315  0.019210
			-0.009509 -0.013840  0.011591
			-0.011753 -0.011069 -0.001350
			-0.012790 -0.004464 -0.007535
			-0.013200  0.000903 -0.010083
			-0.011834  0.006489 -0.002472
			-0.001819  0.005958  0.018558
			-0.001849  0.000709  0.018580
			-0.002403  0.009072  0.015098
			-0.004040  0.008542  0.005741
			-0.001458 -0.007908  0.021141
			-0.002952 -0.009810  0.012653
			-0.003984 -0.009892  0.006743
			-0.005343 -0.006355 -0.001153
			-0.006902 -0.002759 -0.010219
			-0.007451 -0.000894 -0.013429
			-0.007312  0.002795 -0.012766
			-0.006053  0.006568 -0.005703
			 0.004224  0.010541  0.016663
			 0.004404  0.008107  0.017781
			 0.004365  0.001357  0.017810
			 0.004701 -0.003949  0.019925
			 0.002786  0.009264  0.008480
			 0.001097  0.009358 -0.001186
			 0.004377 -0.007954  0.018219
			 0.002490 -0.006676  0.007377
			 0.001319 -0.004636  0.000596
			 0.000020 -0.008159 -0.006716
			-0.001083 -0.009117 -0.012991
			-0.001320 -0.007122 -0.014416
			-0.000879 -0.001614 -0.012100
			-0.001113  0.006381 -0.013734
			-0.000964  0.011758 -0.013080
			-0.000284  0.012208 -0.009203
			 0.011067  0.008327  0.019597
			 0.010816  0.013197  0.017977
			 0.009372  0.012608  0.009729
			 0.010820  0.001011  0.018459
			 0.009790 -0.000758  0.012617
			 0.008875 -0.006587  0.007593
			 0.007844  0.010954  0.001054
			 0.006297  0.013113 -0.007881
			 0.008122 -0.008226  0.003352
			 0.006425 -0.009819 -0.006307
			 0.004808 -0.016224 -0.015331
			 0.004027 -0.013425 -0.019898
			 0.003969 -0.008552 -0.020410
			 0.004587 -0.002166 -0.017112
			 0.004393  0.005266 -0.018499
			 0.004559  0.013894 -0.017860
			 0.016815  0.009905  0.016115
			 0.017353  0.006290  0.019331
			 0.017451 -0.000895  0.020162
			 0.016136 -0.007106  0.012861
			 0.013560  0.010656 -0.002543
			 0.011494  0.012555 -0.014434
			 0.015590 -0.010241  0.009858
			 0.014124 -0.007268  0.001350
			 0.012082 -0.006681 -0.010352
			 0.011014 -0.007763 -0.016441
			 0.011147 -0.005011 -0.015775
			 0.011431 -0.002194 -0.014249
			 0.011223  0.000865 -0.015554
			 0.010979  0.007109 -0.017182
			 0.011171  0.012550 -0.016281
			 0.022744  0.006111  0.013885
			 0.020859  0.007388  0.003044
			 0.022406  0.007167  0.011911
			 0.023483 -0.002124  0.018414
			 0.023415 -0.006313  0.018186
			 0.022780 -0.008386  0.014624
			 0.022242 -0.008646  0.011547
			 0.018882  0.007665 -0.008285
			 0.018275  0.006965 -0.011730
			 0.021713 -0.010781  0.008600
			 0.020847 -0.009610  0.003608
			 0.018541 -0.006527 -0.009704
			 0.018140 -0.007222 -0.011979
			 0.017952 -0.004539 -0.013159
			 0.018189 -0.002472 -0.011876
			 0.018252  0.003153 -0.011715
			 0.028566  0.003878  0.010972
			 0.026307  0.005710 -0.002026
			 0.027208 -0.004271  0.003496
			 0.025728  0.002451 -0.005214
			 0.024665 -0.001069 -0.011172
			 0.028607 -0.002347  0.002356
			 0.027173 -0.000936 -0.005899
		</DataArray>
	</Points>
			<Polys>
				<DataArray type="Int32" Name="connectivity" format="ascii">
					0 1 2 
					0 3 1 
					0 4 3 
					0 5 4 
					0 6 5 
					0 7 6 
					0 2 7 
					2 1 8 
					1 9 8 
					1 3 9 
					2 8 10 
					7 2 10 
					3 11 9 
					3 12 11 
					3 4 12 
					4 13 12 
					4 5 13 
					5 14 13 
					5 6 14 
					6 15 14 
					6 16 15 
					6 7 16 
					7 10 16 
					10 8 17 
					8 18 17 
					8 9 18 
					9 11 18 
					10 17 19 
					16 10 20 
					10 19 20 
					11 21 18 
					11 12 21 
					12 22 21 
					12 23 22 
					12 13 23 
					13 24 23 
					13 25 24 
					13 14 25 
					14 26 25 
					14 15 26 
					15 27 26 
					15 28 27 
					15 16 28 
					16 20 28 
					19 17 29 
					17 30 29 
					17 18 30 
					18 31 30 
					18 32 31 
					18 21 32 
					20 19 33 
					19 29 33 
					28 20 34 
					20 33 34 
					21 35 32 
					21 22 35 
					22 36 35 
					22 23 36 
					23 37 36 
					23 24 37 
					24 38 37 
					24 25 38 
					25 39 38 
					25 40 39 
					25 41 40 
					25 26 41 
					26 42 41 
					26 27 42 
					27 28 42 
					28 43 42 
					28 44 43 
					28 34 44 
					29 45 46 
					29 30 45 
					33 29 47 
					29 46 47 
					30 48 45 
					30 31 48 
					31 49 48 
					31 50 49 
					31 32 50 
					32 35 50 
					34 33 51 
					33 47 51 
					44 34 52 
					34 51 52 
					35 36 50 
					36 53 50 
					36 37 53 
					37 54 53 
					37 38 54 
					38 55 54 
					38 39 55 
					39 56 55 
					39 40 56 
					40 57 56 
					40 41 57 
					41 58 57 
					41 42 58 
					42 59 58 
					42 43 59 
					43 60 59 
					43 44 60 
					44 52 60 
					46 45 61 
					45 62 61 
					45 48 62 
					47 46 61 
					51 47 61 
					48 63 62 
					48 49 63 
					49 50 63 
					50 64 63 
					50 53 64 
					52 51 65 
					51 61 65 
					60 52 66 
					52 65 66 
					53 67 64 
					53 68 67 
					53 54 68 
					54 69 68 
					54 55 69 
					55 70 69 
					55 56 70 
					56 71 70 
					56 57 71 
					57 72 71 
					57 58 72 
					58 73 72 
					58 59 73 
					59 74 73 
					59 60 74 
					60 75 74 
					60 66 75 
					61 62 76 
					65 61 77 
					61 78 77 
					61 76 78 
					62 79 76 
					62 63 79 
					63 80 79 
					63 64 80 
					64 81 80 
					64 82 81 
					64 67 82 
					66 65 83 
					65 77 83 
					75 66 84 
					66 83 84 
					67 85 82 
					67 86 85 
					67 68 86 
					68 69 86 
					69 87 86 
					69 88 87 
					69 70 88 
					70 71 88 
					71 89 88 
					71 72 89 
					72 90 89 
					72 73 90 
					73 91 90 
					73 74 91 
					74 84 91 
					74 75 84 
					76 79 92 
					78 76 92 
					83 77 93 
					77 78 93 
					78 92 93 
					79 80 92 
					80 94 92 
					80 81 94 
					81 82 94 
					82 85 94 
					84 83 95 
					83 93 95 
					91 84 95 
					85 86 94 
					86 96 94 
					86 87 96 
					87 88 96 
					88 89 96 
					89 90 96 
					90 95 96 
					90 91 95 
					92 94 97 
					93 92 98 
					92 97 98 
					95 93 98 
					94 96 97 
					96 95 98 
					96 98 97 
				</DataArray>
				<DataArray type="Int32" Name="offsets" format="ascii">
					3 6 9 12 15 18 21 24 27 30 33 36 39 42 45 48 51 54 57 60 63 66 69 72 75 78 81 84 87 90 93 96 99 102 105 108 111 114 117 120 123 126 129 132 135 138 141 144 147 150 153 156 159 162 165 168 171 174 177 180 183 186 189 192 195 198 201 204 207 210 213 216 219 222 225 228 231 234 237 240 243 246 249 252 255 258 261 264 267 270 273 276 279 282 285 288 291 294 297 300 303 306 309 312 315 318 321 324 327 330 333 336 339 342 345 348 351 354 357 360 363 366 369 372 375 378 381 384 387 390 393 396 399 402 405 408 411 414 417 420 423 426 429 432 435 438 441 444 447 450 453 456 459 462 465 468 471 474 477 480 483 486 489 492 495 498 501 504 507 510 513 516 519 522 525 528 531 534 537 540 543 546 549 552 555 558 561 564 567 570 573 576 579 582 
				</DataArray>
			</Polys>
		</Piece>
	</PolyData>
</VTKFile>
