<?xml version="1.0"?>
<VTKFile type="PolyData" version="0.1" byte_order="LittleEndian" compressor="vtkZLibDataCompressor">
	<PolyData>
		<Piece NumberOfPoints="125" NumberOfVerts="0" NumberOfLines="0" NumberOfStrips="0" NumberOfPolys="242">
		<PointData Normals="Normals">
		<DataArray type="Float32" Name="Normals" NumberOfComponents="3" format="ascii">
			-0.267537 -0.600731  0.753357
			-0.354023 -0.104927  0.929332
			-0.179324  0.266632  0.946969
			-0.761351 -0.588225  0.272647
			-0.637155 -0.471716  0.609523
			-0.435040 -0.819409  0.373243
			 0.902474 -0.105892  0.417525
			 0.979260 -0.156690  0.128446
			 0.102989 -0.990187  0.094460
			 0.310915  0.215176  0.925760
			-0.242120 -0.455979  0.856423
			 0.066755 -0.198429  0.977839
			 0.461437  0.510762  0.725395
			 0.537959 -0.600882  0.591220
			-0.210331 -0.977590  0.008925
			-0.442443 -0.802043  0.401211
			-0.334209 -0.676750  0.655983
			 0.081692 -0.106371  0.990965
			 0.928279 -0.356060 -0.107331
			-0.028317 -0.102829  0.994296
			 0.904981  0.383230 -0.184779
			 0.842356  0.215150 -0.494112
			 0.298445 -0.932280  0.204414
			 0.874146 -0.080398  0.478963
			 0.597962  0.712441 -0.367245
			-0.524019 -0.588970 -0.615238
			 0.004593 -0.267670 -0.963500
			 0.836107  0.113477  0.536701
			 0.384632 -0.107701  0.916765
			 0.114995 -0.573523  0.811078
			 0.010792 -0.549332  0.835535
			-0.270876 -0.652059  0.708128
			 0.806719 -0.590347 -0.026366
			 0.104531 -0.986292  0.127675
			-0.011922 -0.828766  0.559468
			-0.148657 -0.834996  0.529795
			-0.531323  0.329204  0.780590
			 0.670215  0.259324 -0.695387
			 0.527607 -0.708164 -0.469184
			-0.502312 -0.218437  0.836641
			 0.082667  0.501333 -0.861296
			 0.472906  0.108858 -0.874362
			 0.692764 -0.301178 -0.655263
			-0.386977 -0.146409 -0.910392
			 0.975002  0.120513  0.186673
			-0.764908  0.570408 -0.299248
			-0.808007 -0.531388 -0.254465
			-0.316785 -0.457139  0.831067
			 0.676044 -0.687131  0.266112
			-0.522677  0.163736 -0.836659
			-0.660002  0.551069 -0.510608
			-0.762495  0.574170 -0.298210
			 0.008816  0.268014 -0.963375
			 0.670086 -0.253985  0.697478
			 0.911922 -0.377030  0.162007
			 0.051261 -0.506395  0.860777
			 0.800223 -0.592796  0.090749
			 0.360558 -0.870106  0.336025
			 0.558320 -0.701964  0.442183
			-0.836732 -0.204561  0.507971
			-0.630911  0.166530  0.757773
			 0.169056 -0.132224  0.976697
			-0.571314  0.439045 -0.693427
			 0.716507  0.551027  0.427770
			 0.102875 -0.877018  0.469315
			 0.067810 -0.515173  0.854399
			-0.837575  0.175274  0.517443
			-0.965877  0.142812 -0.216070
			 0.407015 -0.117676 -0.905810
			 0.609002  0.176478 -0.773287
			 0.799383  0.002763 -0.600815
			 0.275710 -0.832391  0.480739
			-0.389343 -0.745245  0.541315
			-0.692890 -0.244899  0.678180
			-0.565430  0.010556  0.824729
			-0.613406 -0.494181  0.616050
			-0.174760  0.523640 -0.833823
			 0.442904  0.801604 -0.401581
			-0.759849  0.332307 -0.558749
			 0.489285 -0.865157  0.110017
			-0.603308 -0.122417 -0.788057
			 0.122695  0.849226  0.513576
			-0.407576  0.479503  0.777148
			-0.677614  0.297518  0.672550
			-0.875424 -0.473345  0.097865
			 0.150003 -0.938292  0.311619
			 0.064613 -0.137611 -0.988377
			 0.211799  0.103396 -0.971828
			-0.352530 -0.839149  0.414188
			 0.664658  0.016412 -0.746968
			 0.730417  0.473330 -0.492392
			 0.729546  0.431836 -0.530358
			 0.746819  0.379468 -0.546136
			 0.976842  0.213949  0.002350
			-0.231189 -0.273197  0.933764
			 0.204806 -0.147806  0.967578
			-0.384453  0.089694  0.918777
			-0.639350  0.144805  0.755158
			-0.365570 -0.201200  0.908778
			-0.393668  0.039438  0.918407
			-0.437299 -0.641299 -0.630480
			-0.058610  0.117085 -0.991391
			 0.005120 -0.111795 -0.993718
			 0.322325 -0.128057 -0.937928
			-0.759573 -0.187786  0.622724
			-0.720859 -0.193629  0.665485
			 0.523558  0.077652 -0.848444
			 0.470066  0.780736  0.411691
			-0.067001  0.869315  0.489696
			-0.266906  0.953897  0.137267
			 0.313987  0.651395 -0.690722
			 0.714934  0.501517  0.487185
			-0.563369  0.380534  0.733355
			-0.863398  0.270420  0.425931
			-0.662757  0.743115 -0.092379
			 0.051435 -0.379150 -0.923905
			-0.074899 -0.161026 -0.984104
			 0.042422  0.286621 -0.957104
			-0.871537 -0.343231  0.350166
			-0.932626 -0.184444  0.310143
			 0.028979  0.551892 -0.833412
			-0.301834  0.901876 -0.309057
			-0.639293  0.454950 -0.619939
			-0.892838  0.076933 -0.443758
			-0.928883 -0.347637 -0.127767
		</DataArray>
	</PointData>
	<Points>
		<DataArray type="Float32" NumberOfComponents="3" format="ascii">
			-0.045919 -0.070017  0.069408
			-0.062417 -0.062953  0.055540
			-0.062448 -0.071901  0.057002
			-0.047413 -0.050859  0.081192
			-0.057682 -0.053884  0.064535
			-0.048881 -0.048842  0.096234
			-0.041877 -0.045942  0.088833
			-0.041830 -0.065559  0.060295
			-0.052737 -0.076823  0.059980
			-0.076977 -0.066999  0.055770
			-0.067026 -0.053924  0.056784
			-0.071624 -0.058301  0.055727
			-0.080483 -0.072644  0.062249
			-0.084750 -0.081351  0.070701
			-0.061698 -0.040081  0.089113
			-0.061428 -0.046106  0.069411
			-0.065351 -0.049490  0.061383
			-0.071333 -0.042764  0.104575
			-0.029562 -0.031117  0.096830
			-0.059916 -0.027590  0.099000
			-0.043487 -0.047599  0.064706
			-0.045607 -0.037891  0.078833
			-0.031563 -0.083550  0.016874
			-0.036276 -0.072749  0.036449
			-0.043358 -0.059739  0.041738
			-0.054641 -0.074427  0.051754
			-0.080788 -0.075604  0.049913
			-0.087329 -0.064967  0.065912
			-0.078795 -0.058398  0.056620
			-0.075725 -0.050801  0.059263
			-0.094784 -0.078564  0.080703
			-0.102557 -0.079412  0.071675
			-0.098898 -0.090770  0.050130
			-0.072428 -0.040380  0.077771
			-0.088044 -0.048933  0.100261
			-0.070202 -0.044831  0.065144
			-0.088158 -0.031197  0.092581
			-0.036015 -0.018197  0.095127
			-0.023835 -0.009300  0.106864
			-0.063048 -0.006570  0.099770
			-0.059231 -0.032040  0.061986
			-0.058937 -0.031863  0.062129
			-0.025062 -0.079029  0.002221
			-0.055663 -0.097839 -0.000351
			-0.021941 -0.075541  0.023867
			-0.055601 -0.064625  0.037258
			-0.052625 -0.067426  0.044255
			-0.062757 -0.090507  0.019243
			-0.054177 -0.102026  0.005631
			-0.062492 -0.055190  0.052861
			-0.126944 -0.070428  0.061559
			-0.125353 -0.054405  0.052960
			-0.089373 -0.030293  0.066890
			-0.085142 -0.053865  0.060240
			-0.089862 -0.054217  0.072831
			-0.097661 -0.060940  0.092403
			-0.091591 -0.050185  0.089785
			-0.077690 -0.044275  0.065884
			-0.084509 -0.048300  0.064622
			-0.105344 -0.063815  0.075543
			-0.110855 -0.059933  0.067604
			-0.111746 -0.086624  0.072478
			-0.135611 -0.084397  0.054166
			-0.096303 -0.102807  0.040325
			-0.114308 -0.115077  0.052030
			-0.119191 -0.101490  0.069475
			-0.100969 -0.048285  0.084058
			-0.095264 -0.012132  0.070120
			-0.083712  0.011709  0.060801
			-0.056939  0.031117  0.098576
			 0.000000  0.000000  0.118718
			-0.008839 -0.013896  0.121746
			-0.028267 -0.009664  0.112591
			-0.045061  0.043864  0.123584
			-0.077514  0.027034  0.079831
			-0.101925 -0.005538  0.073290
			-0.046878 -0.072892  0.002407
			-0.026301 -0.071631  0.004815
			-0.055379 -0.082850  0.001799
			-0.072771 -0.117347  0.025230
			-0.106712 -0.111791  0.036161
			-0.065047 -0.095889  0.019016
			-0.118362 -0.066696  0.067764
			-0.131818 -0.075844  0.069124
			-0.135738 -0.096931  0.060259
			-0.092129 -0.120870  0.035677
			-0.104359  0.010080  0.050771
			-0.097172  0.024295  0.055110
			-0.120259 -0.006688  0.063216
			-0.082516  0.044380  0.066276
			-0.068605  0.091887  0.085194
			-0.008366  0.022010  0.122779
			-0.026130  0.046823  0.120518
			-0.001184  0.011484  0.127749
			-0.018107  0.019491  0.132935
			-0.001073  0.011410  0.128095
			-0.042118  0.051224  0.132586
			-0.065829  0.083022  0.103489
			-0.097580  0.072126  0.071741
			-0.127064  0.049844  0.068258
			-0.130339 -0.000991  0.057141
			-0.134140  0.009515  0.055856
			-0.118896  0.021691  0.059151
			-0.110783  0.041488  0.052254
			-0.134095  0.010597  0.055875
			-0.132189  0.020569  0.063785
			-0.084245  0.065990  0.059553
			-0.042675  0.072014  0.119140
			-0.063704  0.089931  0.100713
			-0.086810  0.093832  0.076345
			-0.080521  0.089270  0.070947
			-0.016222  0.038473  0.132645
			-0.105118  0.082413  0.073602
			-0.140045  0.047838  0.057869
			-0.121831  0.074797  0.061410
			-0.135777  0.025181  0.056779
			-0.130442  0.036093  0.043881
			-0.121330  0.055186  0.048853
			-0.135709  0.025433  0.056811
			-0.142756  0.037853  0.055989
			-0.099933  0.080171  0.058907
			-0.101184  0.087329  0.067624
			-0.137764  0.052955  0.051671
			-0.142567  0.036860  0.050538
			-0.140283  0.027057  0.051667
		</DataArray>
	</Points>
			<Polys>
				<DataArray type="Int32" Name="connectivity" format="ascii">
					0 1 2 
					3 4 0 
					0 5 3 
					0 4 1 
					0 6 5 
					6 0 7 
					2 8 0 
					0 8 7 
					2 1 9 
					10 11 1 
					10 1 4 
					11 9 1 
					2 12 13 
					12 2 9 
					14 3 5 
					15 4 3 
					15 3 14 
					16 10 4 
					16 4 15 
					5 17 14 
					6 17 5 
					18 19 6 
					19 17 6 
					7 20 6 
					6 20 21 
					6 21 18 
					22 23 7 
					7 8 22 
					24 20 7 
					24 7 23 
					25 22 8 
					26 8 13 
					25 8 26 
					9 27 12 
					28 27 9 
					11 28 9 
					16 29 10 
					10 29 11 
					11 29 28 
					12 27 13 
					13 27 30 
					30 31 13 
					32 26 13 
					32 13 31 
					33 14 34 
					33 15 14 
					34 14 17 
					35 16 15 
					35 15 33 
					35 29 16 
					36 34 17 
					19 36 17 
					37 18 21 
					18 37 38 
					38 19 18 
					39 19 38 
					36 19 39 
					21 20 40 
					40 20 24 
					37 21 41 
					42 22 43 
					44 23 22 
					45 22 46 
					46 22 25 
					44 22 42 
					47 48 22 
					48 43 22 
					45 47 22 
					24 23 44 
					45 24 44 
					49 24 45 
					49 40 24 
					25 26 49 
					25 49 46 
					26 50 51 
					52 26 51 
					26 32 50 
					49 26 40 
					40 26 52 
					53 54 27 
					28 53 27 
					27 55 30 
					54 56 27 
					27 56 55 
					28 29 53 
					29 57 58 
					57 29 35 
					53 29 58 
					55 59 30 
					59 31 30 
					60 61 31 
					59 60 31 
					61 32 31 
					62 32 63 
					32 62 50 
					64 32 65 
					63 32 64 
					65 32 61 
					56 57 33 
					33 34 56 
					35 33 57 
					56 34 55 
					66 55 34 
					36 66 34 
					36 39 67 
					66 36 67 
					41 68 37 
					68 69 37 
					37 69 38 
					70 71 38 
					38 69 70 
					38 71 72 
					39 38 72 
					39 72 73 
					39 73 74 
					75 39 74 
					39 75 67 
					67 40 52 
					67 68 41 
					76 77 42 
					43 76 42 
					44 42 77 
					76 43 78 
					43 47 45 
					78 43 45 
					48 79 43 
					80 43 79 
					43 80 81 
					47 43 81 
					45 44 77 
					45 76 78 
					46 49 45 
					45 77 76 
					47 81 48 
					81 79 48 
					82 50 83 
					83 50 62 
					51 50 82 
					82 60 51 
					52 51 67 
					60 67 51 
					58 54 53 
					57 54 58 
					54 57 56 
					66 59 55 
					59 66 60 
					82 61 60 
					66 67 60 
					82 83 61 
					83 65 61 
					62 84 83 
					80 84 62 
					80 62 63 
					81 80 63 
					63 64 85 
					85 79 63 
					81 63 79 
					84 80 64 
					84 64 65 
					64 80 85 
					83 84 65 
					75 68 67 
					86 87 68 
					86 68 88 
					88 68 75 
					69 68 89 
					87 89 68 
					90 69 89 
					91 69 92 
					92 69 90 
					91 70 69 
					93 70 91 
					71 70 93 
					71 94 72 
					95 94 71 
					73 72 94 
					96 73 94 
					97 74 73 
					96 97 73 
					98 99 74 
					97 98 74 
					75 74 99 
					88 75 99 
					80 79 85 
					86 88 100 
					101 86 100 
					86 102 87 
					101 102 86 
					87 103 89 
					87 102 103 
					104 88 105 
					100 88 104 
					99 105 88 
					89 106 90 
					103 106 89 
					107 92 90 
					107 90 108 
					108 90 109 
					110 109 90 
					90 106 110 
					93 91 111 
					111 91 92 
					107 111 92 
					94 95 111 
					96 94 111 
					96 111 107 
					97 96 107 
					97 107 108 
					112 97 109 
					112 98 97 
					109 97 108 
					112 99 98 
					113 105 99 
					114 99 112 
					114 113 99 
					102 101 115 
					103 102 116 
					116 102 115 
					103 117 106 
					116 117 103 
					104 105 118 
					118 105 119 
					119 105 113 
					110 106 120 
					120 106 117 
					109 110 121 
					109 121 112 
					121 110 120 
					121 114 112 
					122 123 113 
					122 113 114 
					113 123 119 
					121 120 114 
					117 122 114 
					114 120 117 
					115 124 116 
					116 124 115 
					124 123 116 
					123 122 116 
					116 122 117 
					124 118 119 
					119 123 124 
				</DataArray>
				<DataArray type="Int32" Name="offsets" format="ascii">
					3 6 9 12 15 18 21 24 27 30 33 36 39 42 45 48 51 54 57 60 63 66 69 72 75 78 81 84 87 90 93 96 99 102 105 108 111 114 117 120 123 126 129 132 135 138 141 144 147 150 153 156 159 162 165 168 171 174 177 180 183 186 189 192 195 198 201 204 207 210 213 216 219 222 225 228 231 234 237 240 243 246 249 252 255 258 261 264 267 270 273 276 279 282 285 288 291 294 297 300 303 306 309 312 315 318 321 324 327 330 333 336 339 342 345 348 351 354 357 360 363 366 369 372 375 378 381 384 387 390 393 396 399 402 405 408 411 414 417 420 423 426 429 432 435 438 441 444 447 450 453 456 459 462 465 468 471 474 477 480 483 486 489 492 495 498 501 504 507 510 513 516 519 522 525 528 531 534 537 540 543 546 549 552 555 558 561 564 567 570 573 576 579 582 585 588 591 594 597 600 603 606 609 612 615 618 621 624 627 630 633 636 639 642 645 648 651 654 657 660 663 666 669 672 675 678 681 684 687 690 693 696 699 702 705 708 711 714 717 720 723 726 
				</DataArray>
			</Polys>
		</Piece>
	</PolyData>
</VTKFile>
